<?xml version="1.0"?>
<VTKFile type="UnstructuredGrid" version="0.1">
  <UnstructuredGrid>
    <Piece NumberOfPoints="1636" NumberOfCells="3138">
      <Points>
        <DataArray type="Float32" NumberOfComponents="3">
           5.21582007e-01     5.11657000e-01     0.00000000e+00    
           5.07319987e-01     5.11657000e-01     0.00000000e+00    
           5.11602998e-01     5.13803005e-01     0.00000000e+00    
           5.17298996e-01     5.09510994e-01     0.00000000e+00    
           4.65243995e-01     5.17907977e-01     0.00000000e+00    
           4.65243995e-01     5.11415005e-01     0.00000000e+00    
           4.65243995e-01     5.04921973e-01     0.00000000e+00    
           4.75246996e-01     5.11415005e-01     0.00000000e+00    
           5.33852994e-01     5.04921973e-01     0.00000000e+00    
           5.33852994e-01     5.11415005e-01     0.00000000e+00    
           5.33852994e-01     5.17907977e-01     0.00000000e+00    
           4.83779997e-01     5.34618974e-01     0.00000000e+00    
           4.76381987e-01     5.34618974e-01     0.00000000e+00    
           4.68984991e-01     5.34618974e-01     0.00000000e+00    
           4.76381987e-01     5.23841977e-01     0.00000000e+00    
           4.68984991e-01     4.66010004e-01     0.00000000e+00    
           4.76381987e-01     4.66010004e-01     0.00000000e+00    
           4.83779997e-01     4.66010004e-01     0.00000000e+00    
           4.99920011e-01     5.34618974e-01     0.00000000e+00    
           4.94562000e-01     5.34618974e-01     0.00000000e+00    
           4.89203990e-01     5.34618974e-01     0.00000000e+00    
           4.94562000e-01     5.22280991e-01     0.00000000e+00    
           4.89203990e-01     4.66010004e-01     0.00000000e+00    
           4.94562000e-01     4.66010004e-01     0.00000000e+00    
           4.99920011e-01     4.66010004e-01     0.00000000e+00    
           5.32517016e-01     4.74112004e-01     0.00000000e+00    
           5.17961025e-01     4.74112004e-01     0.00000000e+00    
           5.22153020e-01     4.76040006e-01     0.00000000e+00    
           5.28325021e-01     4.72182989e-01     0.00000000e+00    
           5.33852994e-01     5.19801974e-01     0.00000000e+00    
           5.33852994e-01     5.24702013e-01     0.00000000e+00    
           5.33852994e-01     5.29603004e-01     0.00000000e+00    
           5.19536972e-01     5.24702013e-01     0.00000000e+00    
           4.65243995e-01     5.29603004e-01     0.00000000e+00    
           4.65243995e-01     5.24702013e-01     0.00000000e+00    
           4.65243995e-01     5.19801974e-01     0.00000000e+00    
           4.92487997e-01     5.17117977e-01     0.00000000e+00    
           4.76904988e-01     5.17117977e-01     0.00000000e+00    
           4.81225997e-01     5.18886983e-01     0.00000000e+00    
           4.88168001e-01     5.15349984e-01     0.00000000e+00    
           5.17996013e-01     5.27033985e-01     0.00000000e+00    
           5.04473984e-01     5.27033985e-01     0.00000000e+00    
           5.10882020e-01     5.30395985e-01     0.00000000e+00    
           5.11587977e-01     5.23671985e-01     0.00000000e+00    
           5.08446991e-01     4.83435005e-01     0.00000000e+00    
           4.94414002e-01     4.83435005e-01     0.00000000e+00    
           5.03341019e-01     4.86377001e-01     0.00000000e+00    
           4.99518991e-01     4.80491996e-01     0.00000000e+00    
           4.65243995e-01     4.83101994e-01     0.00000000e+00    
           4.65243995e-01     4.78758007e-01     0.00000000e+00    
           4.65243995e-01     4.74415004e-01     0.00000000e+00    
           4.78336990e-01     4.78758007e-01     0.00000000e+00    
           4.69897985e-01     4.81519997e-01     0.00000000e+00    
           4.72241998e-01     4.75997001e-01     0.00000000e+00    
           5.33852994e-01     4.74415004e-01     0.00000000e+00    
           5.33852994e-01     4.78758007e-01     0.00000000e+00    
           5.33852994e-01     4.83101994e-01     0.00000000e+00    
           4.80668008e-01     4.95810986e-01     0.00000000e+00    
           4.66084987e-01     4.95810986e-01     0.00000000e+00    
           4.72070009e-01     4.99215007e-01     0.00000000e+00    
           4.74682987e-01     4.92406994e-01     0.00000000e+00    
           4.93930012e-01     4.79214013e-01     0.00000000e+00    
           4.78967011e-01     4.79214013e-01     0.00000000e+00    
           4.87289995e-01     4.82858986e-01     0.00000000e+00    
           4.85606998e-01     4.75569010e-01     0.00000000e+00    
           5.09284973e-01     4.97658014e-01     0.00000000e+00    
           4.95503992e-01     4.97658014e-01     0.00000000e+00    
           5.00939012e-01     5.00781000e-01     0.00000000e+00    
           5.03850996e-01     4.94536012e-01     0.00000000e+00    
           5.33011973e-01     5.01751006e-01     0.00000000e+00    
           5.17829001e-01     5.01751006e-01     0.00000000e+00    
           5.29196024e-01     5.02147973e-01     0.00000000e+00    
           5.21646023e-01     5.01353979e-01     0.00000000e+00    
           4.95451003e-01     5.00564992e-01     0.00000000e+00    
           4.80922014e-01     5.00564992e-01     0.00000000e+00    
           4.86593992e-01     5.03829002e-01     0.00000000e+00    
           4.89778996e-01     4.97299999e-01     0.00000000e+00    
           5.25367022e-01     4.88312006e-01     0.00000000e+00    
           5.09521008e-01     4.88312006e-01     0.00000000e+00    
           5.15170991e-01     4.91557002e-01     0.00000000e+00    
           5.19716024e-01     4.85067010e-01     0.00000000e+00    
           4.65243995e-01     5.34618974e-01     0.00000000e+00    
           4.65243995e-01     4.66010004e-01     0.00000000e+00    
           5.33852994e-01     4.66010004e-01     0.00000000e+00    
           5.33852994e-01     5.34618974e-01     0.00000000e+00    
           5.21338999e-01     5.13502657e-01     0.00000000e+00    
           5.20626605e-01     5.15222490e-01     0.00000000e+00    
           5.19493401e-01     5.16699374e-01     0.00000000e+00    
           5.18016517e-01     5.17832637e-01     0.00000000e+00    
           5.16296625e-01     5.18545032e-01     0.00000000e+00    
           5.14451027e-01     5.18787980e-01     0.00000000e+00    
           5.12605369e-01     5.18545032e-01     0.00000000e+00    
           5.10885477e-01     5.17832637e-01     0.00000000e+00    
           5.09408593e-01     5.16699374e-01     0.00000000e+00    
           5.08275390e-01     5.15222490e-01     0.00000000e+00    
           5.07562995e-01     5.13502657e-01     0.00000000e+00    
           5.07562995e-01     5.09811342e-01     0.00000000e+00    
           5.08275390e-01     5.08091509e-01     0.00000000e+00    
           5.09408593e-01     5.06614625e-01     0.00000000e+00    
           5.10885477e-01     5.05481362e-01     0.00000000e+00    
           5.12605369e-01     5.04768968e-01     0.00000000e+00    
           5.14451027e-01     5.04526019e-01     0.00000000e+00    
           5.16296625e-01     5.04768968e-01     0.00000000e+00    
           5.18016517e-01     5.05481362e-01     0.00000000e+00    
           5.19493401e-01     5.06614625e-01     0.00000000e+00    
           5.20626605e-01     5.08091509e-01     0.00000000e+00    
           5.21338999e-01     5.09811342e-01     0.00000000e+00    
           5.14451027e-01     5.11657000e-01     0.00000000e+00    
           4.65243995e-01     5.16254604e-01     0.00000000e+00    
           4.65243995e-01     5.14134228e-01     0.00000000e+00    
           4.65243995e-01     5.08695781e-01     0.00000000e+00    
           4.65243995e-01     5.06575406e-01     0.00000000e+00    
           4.66931671e-01     5.04409373e-01     0.00000000e+00    
           4.68693614e-01     5.04328012e-01     0.00000000e+00    
           4.70421344e-01     5.04682958e-01     0.00000000e+00    
           4.72008497e-01     5.05452335e-01     0.00000000e+00    
           4.73357379e-01     5.06588817e-01     0.00000000e+00    
           4.74384934e-01     5.08022368e-01     0.00000000e+00    
           4.75027919e-01     5.09664834e-01     0.00000000e+00    
           4.75028187e-01     5.13165236e-01     0.00000000e+00    
           4.74385172e-01     5.14807761e-01     0.00000000e+00    
           4.73357558e-01     5.16241372e-01     0.00000000e+00    
           4.72008646e-01     5.17377913e-01     0.00000000e+00    
           4.70421433e-01     5.18147290e-01     0.00000000e+00    
           4.68693614e-01     5.18502235e-01     0.00000000e+00    
           4.66931641e-01     5.18420875e-01     0.00000000e+00    
           5.33852994e-01     5.06575406e-01     0.00000000e+00    
           5.33852994e-01     5.08695781e-01     0.00000000e+00    
           5.33852994e-01     5.14134228e-01     0.00000000e+00    
           5.33852994e-01     5.16254604e-01     0.00000000e+00    
           5.32303810e-01     5.16964078e-01     0.00000000e+00    
           5.31043947e-01     5.15658796e-01     0.00000000e+00    
           5.30155540e-01     5.14077127e-01     0.00000000e+00    
           5.29696345e-01     5.12322068e-01     0.00000000e+00    
           5.29696345e-01     5.10507941e-01     0.00000000e+00    
           5.30155540e-01     5.08752882e-01     0.00000000e+00    
           5.31043947e-01     5.07171214e-01     0.00000000e+00    
           5.32303810e-01     5.05865932e-01     0.00000000e+00    
           4.81947482e-01     5.34618974e-01     0.00000000e+00    
           4.79541332e-01     5.34618974e-01     0.00000000e+00    
           4.73223150e-01     5.34618974e-01     0.00000000e+00    
           4.70817327e-01     5.34618974e-01     0.00000000e+00    
           4.68517244e-01     5.32760799e-01     0.00000000e+00    
[...]
      <PointData>
        <DataArray type="Float32" Name="Displacement" NumberOfComponents="3">
           4.33769281e-04     1.93286352e-04     0.00000000e+00    
           4.24415251e-04     2.24588206e-04     0.00000000e+00    
           4.33931884e-04     2.17358684e-04     0.00000000e+00    
           4.26035665e-04     1.99925911e-04     0.00000000e+00    
           1.96671725e-04     2.02563111e-04     0.00000000e+00    
           1.76910311e-04     1.92487321e-04     0.00000000e+00    
           1.61059361e-04     1.85177109e-04     0.00000000e+00    
           1.89264407e-04     1.81434094e-04     0.00000000e+00    
           4.61059361e-04     1.85177109e-04     0.00000000e+00    
           4.76910296e-04     1.92487321e-04     0.00000000e+00    
           4.96671710e-04     2.02563111e-04     0.00000000e+00    
           3.45387787e-04     2.70008255e-04     0.00000000e+00    
           3.40307975e-04     2.95324775e-04     0.00000000e+00    
           3.34970799e-04     3.18509206e-04     0.00000000e+00    
           2.98215251e-04     2.85314745e-04     0.00000000e+00    
           3.49708025e-05     1.85091994e-05     0.00000000e+00    
           4.03079684e-05    -4.67522614e-06     0.00000000e+00    
           4.53877947e-05    -2.99917538e-05     0.00000000e+00    
           3.96748510e-04     2.45379575e-04     0.00000000e+00    
           3.92844755e-04     2.55165825e-04     0.00000000e+00    
           3.89191613e-04     2.66918738e-04     0.00000000e+00    
           3.58015590e-04     2.45779171e-04     0.00000000e+00    
           8.91916134e-05    -3.30812545e-05     0.00000000e+00    
           9.28447407e-05    -4.48341671e-05     0.00000000e+00    
           9.67485103e-05    -5.46204174e-05     0.00000000e+00    
           3.40470404e-04     5.39653338e-05     0.00000000e+00    
           3.24887835e-04     9.54681382e-05     0.00000000e+00    
           3.34193348e-04     8.60103755e-05     0.00000000e+00    
           3.26891051e-04     6.33913660e-05     0.00000000e+00    
           5.11333870e-04     2.41731468e-04     0.00000000e+00    
           5.30940655e-04     2.49087112e-04     0.00000000e+00    
           5.48769371e-04     2.53935752e-04     0.00000000e+00    
           5.17431065e-04     2.90301599e-04     0.00000000e+00    
           2.48769356e-04     2.53935752e-04     0.00000000e+00    
           2.30940685e-04     2.49087112e-04     0.00000000e+00    
           2.11333871e-04     2.41731468e-04     0.00000000e+00    
           2.91205593e-04     2.08753147e-04     0.00000000e+00    
           2.76808947e-04     2.50195269e-04     0.00000000e+00    
           2.88441282e-04     2.41949645e-04     0.00000000e+00    
           2.81652145e-04     2.20402580e-04     0.00000000e+00    
           4.80801507e-04     2.70286138e-04     0.00000000e+00    
           4.64789075e-04     2.73915153e-04     0.00000000e+00    
           4.75640059e-04     2.74839636e-04     0.00000000e+00    
           4.71252366e-04     2.69529148e-04     0.00000000e+00    
           2.49213132e-04     1.05641942e-04     0.00000000e+00    
           2.25000840e-04     1.01075166e-04     0.00000000e+00    
           2.44167284e-04     1.07507782e-04     0.00000000e+00    
           2.31026701e-04     1.02585145e-04     0.00000000e+00    
           1.08199521e-04     7.75743611e-05     0.00000000e+00    
           9.03705950e-05     7.31393302e-05     0.00000000e+00    
           7.60992116e-05     7.05314087e-05     0.00000000e+00    
           1.11929141e-04     4.19011558e-05     0.00000000e+00    
           1.06843603e-04     6.41016450e-05     0.00000000e+00    
           9.20992607e-05     5.42587368e-05     0.00000000e+00    
           3.76099226e-04     7.05314087e-05     0.00000000e+00    
           3.90370580e-04     7.31393302e-05     0.00000000e+00    
           4.08199528e-04     7.75743611e-05     0.00000000e+00    
           1.84732955e-04     1.35971975e-04     0.00000000e+00    
           1.69800755e-04     1.49331652e-04     0.00000000e+00    
           1.79420749e-04     1.44985315e-04     0.00000000e+00    
           1.72213084e-04     1.36618779e-04     0.00000000e+00    
           1.69133360e-04     5.47070522e-05     0.00000000e+00    
           1.41666620e-04     5.78882755e-05     0.00000000e+00    
           1.61958204e-04     5.59995460e-05     0.00000000e+00    
           1.48629159e-04     5.31116311e-05     0.00000000e+00    
           2.81811808e-04     1.29200853e-04     0.00000000e+00    
           2.65076582e-04     1.47629878e-04     0.00000000e+00    
           2.79524596e-04     1.41183526e-04     0.00000000e+00    
           2.70736637e-04     1.31724591e-04     0.00000000e+00    
           4.25664883e-04     1.55398622e-04     0.00000000e+00    
           4.12182591e-04     1.85735582e-04     0.00000000e+00    
           4.24020720e-04     1.64753146e-04     0.00000000e+00    
           4.13232454e-04     1.74664339e-04     0.00000000e+00    
           2.47692253e-04     1.46577222e-04     0.00000000e+00    
           2.27404118e-04     1.63791396e-04     0.00000000e+00    
           2.39822402e-04     1.61013464e-04     0.00000000e+00    
           2.33705650e-04     1.52576380e-04     0.00000000e+00    
           3.47957888e-04     1.27629115e-04     0.00000000e+00    
           3.30678129e-04     1.49498912e-04     0.00000000e+00    
           3.48102709e-04     1.48252380e-04     0.00000000e+00    
           3.37564561e-04     1.35356793e-04     0.00000000e+00    
           3.00000014e-04     3.00000014e-04     0.00000000e+00    
           0.00000000e+00     0.00000000e+00     0.00000000e+00    
           3.00000014e-04     0.00000000e+00     0.00000000e+00    
           6.00000028e-04     3.00000014e-04     0.00000000e+00    
           4.38811549e-04     1.96239038e-04     0.00000000e+00    
           4.43804718e-04     1.99963266e-04     0.00000000e+00    
           4.47680184e-04     2.04069016e-04     0.00000000e+00    
           4.49919171e-04     2.07941644e-04     0.00000000e+00    
           4.50568768e-04     2.12310915e-04     0.00000000e+00    
           4.49835847e-04     2.16884742e-04     0.00000000e+00    
           4.48274455e-04     2.20834379e-04     0.00000000e+00    
           4.45420708e-04     2.23423151e-04     0.00000000e+00    
           4.41052165e-04     2.25091309e-04     0.00000000e+00    
           4.35892900e-04     2.25825162e-04     0.00000000e+00    
           4.30295826e-04     2.25751544e-04     0.00000000e+00    
           4.18576325e-04     2.22056013e-04     0.00000000e+00    
           4.13281581e-04     2.18671092e-04     0.00000000e+00    
           4.09141969e-04     2.14771469e-04     0.00000000e+00    
           4.06652194e-04     2.11006409e-04     0.00000000e+00    
           4.06409206e-04     2.07154633e-04     0.00000000e+00    
           4.08151594e-04     2.03339310e-04     0.00000000e+00    
           4.11108078e-04     1.99360438e-04     0.00000000e+00    
           4.15617309e-04     1.95051485e-04     0.00000000e+00    
           4.21871111e-04     1.90590261e-04     0.00000000e+00    
           4.25354723e-04     1.90434323e-04     0.00000000e+00    
           4.28828556e-04     1.91456944e-04     0.00000000e+00    
           4.29609296e-04     2.08858401e-04     0.00000000e+00    
           1.91840605e-04     2.00271243e-04     0.00000000e+00    
           1.85648998e-04     1.97051864e-04     0.00000000e+00    
           1.67815335e-04     1.88344158e-04     0.00000000e+00    
           1.62350363e-04     1.86197271e-04     0.00000000e+00    
           1.63904508e-04     1.84334305e-04     0.00000000e+00    
           1.66325117e-04     1.83078024e-04     0.00000000e+00    
           1.68479615e-04     1.81273062e-04     0.00000000e+00    
           1.71343519e-04     1.80016679e-04     0.00000000e+00    
           1.74748318e-04     1.79455208e-04     0.00000000e+00    
           1.79116789e-04     1.79312250e-04     0.00000000e+00    
           1.83898941e-04     1.80062474e-04     0.00000000e+00    
           1.94085995e-04     1.83154829e-04     0.00000000e+00    
           1.97287052e-04     1.84709643e-04     0.00000000e+00    
           1.99130096e-04     1.86625388e-04     0.00000000e+00    
           2.00086535e-04     1.89020167e-04     0.00000000e+00    
           2.00641298e-04     1.91947300e-04     0.00000000e+00    
           2.00321840e-04     1.95075714e-04     0.00000000e+00    
           1.98906317e-04     1.98498034e-04     0.00000000e+00    
           4.62350377e-04     1.86197271e-04     0.00000000e+00    
           4.67815320e-04     1.88344158e-04     0.00000000e+00    
           4.85648983e-04     1.97051864e-04     0.00000000e+00    
           4.91840590e-04     2.00271243e-04     0.00000000e+00    
           4.93299216e-04     2.05870805e-04     0.00000000e+00    
           4.89207800e-04     2.06676574e-04     0.00000000e+00    
           4.84168035e-04     2.05599441e-04     0.00000000e+00    
           4.78262635e-04     2.03663614e-04     0.00000000e+00    
           4.71615349e-04     2.00193899e-04     0.00000000e+00    
           4.64204437e-04     1.94775523e-04     0.00000000e+00    
           4.56493988e-04     1.87015743e-04     0.00000000e+00    
           4.57794406e-04     1.84542208e-04     0.00000000e+00    
           3.44316562e-04     2.76595674e-04     0.00000000e+00    
           3.42705462e-04     2.84872687e-04     0.00000000e+00    
           3.37894278e-04     3.05462221e-04     0.00000000e+00    
           3.36195866e-04     3.12843564e-04     0.00000000e+00    
           3.26110661e-04     3.17499391e-04     0.00000000e+00    
           3.17541009e-04     3.15055018e-04     0.00000000e+00    
           3.10098432e-04     3.11851327e-04     0.00000000e+00    
           3.04585905e-04     3.07951530e-04     0.00000000e+00    
           3.00837535e-04     3.03018431e-04     0.00000000e+00    
           2.98446714e-04     2.97358318e-04     0.00000000e+00    
           2.97511462e-04     2.91319535e-04     0.00000000e+00    
           3.00838001e-04     2.79001775e-04     0.00000000e+00    
           3.04667075e-04     2.73173093e-04     0.00000000e+00    
           3.09573632e-04     2.68897711e-04     0.00000000e+00    
           3.15819983e-04     2.66151765e-04     0.00000000e+00    
           3.23255517e-04     2.64756352e-04     0.00000000e+00    
           3.30799783e-04     2.64783914e-04     0.00000000e+00    
           3.38252081e-04     2.66369228e-04     0.00000000e+00    
           3.61958701e-05     1.28435613e-05     0.00000000e+00    
           3.78942823e-05     5.46221372e-06     0.00000000e+00    
           4.27054692e-05    -1.51273116e-05     0.00000000e+00    
           4.43165518e-05    -2.34043237e-05     0.00000000e+00    
           5.20735302e-05    -2.48901779e-05     0.00000000e+00    
           5.76332895e-05    -1.86853231e-05     0.00000000e+00    
           6.12742588e-05    -1.23312975e-05     0.00000000e+00    
           6.25506436e-05    -6.07679885e-06     0.00000000e+00    
           6.17076366e-05     6.95360541e-07     0.00000000e+00    
           5.94110898e-05     7.33536217e-06     0.00000000e+00    
           5.55736879e-05     1.26066498e-05     0.00000000e+00    
           5.00095848e-05     1.58244384e-05     0.00000000e+00    
           4.28651038e-05     1.77945130e-05     0.00000000e+00    
           3.95130803e-04     2.49356963e-04     0.00000000e+00    
           3.90728965e-04     2.61720299e-04     0.00000000e+00    
           3.83737322e-04     2.67999130e-04     0.00000000e+00    
           3.77924473e-04     2.67987110e-04     0.00000000e+00    
           3.72079608e-04     2.66806368e-04     0.00000000e+00    
           3.66175314e-04     2.64045084e-04     0.00000000e+00    
           3.59749916e-04     2.59057066e-04     0.00000000e+00    
           3.54537042e-04     2.53030827e-04     0.00000000e+00    
           3.53087962e-04     2.48986820e-04     0.00000000e+00    
           3.54871940e-04     2.47317046e-04     0.00000000e+00    
           3.61630111e-04     2.43684015e-04     0.00000000e+00    
           3.65969026e-04     2.41635527e-04     0.00000000e+00    
           3.71292292e-04     2.40059526e-04     0.00000000e+00    
           3.77112563e-04     2.39002315e-04     0.00000000e+00    
           3.82601080e-04     2.38477034e-04     0.00000000e+00    
           3.87147855e-04     2.38717970e-04     0.00000000e+00    
           3.90661909e-04     2.39810994e-04     0.00000000e+00    
           3.93829279e-04     2.42163835e-04     0.00000000e+00    
           9.07289723e-05    -3.82797080e-05     0.00000000e+00    
           9.51308102e-05    -5.06430297e-05     0.00000000e+00    
           9.89044347e-05    -5.07403929e-05     0.00000000e+00    
           9.99574913e-05    -4.66098281e-05     0.00000000e+00    
           9.96125309e-05    -4.25528997e-05     0.00000000e+00    
           9.75753283e-05    -3.86493339e-05     0.00000000e+00    
           9.40956597e-05    -3.53874530e-05     0.00000000e+00    
           3.48934904e-04     5.71568416e-05     0.00000000e+00    
           3.52571777e-04     6.02334258e-05     0.00000000e+00    
           3.53596290e-04     6.32911033e-05     0.00000000e+00    
           3.54150718e-04     6.80223893e-05     0.00000000e+00    
           3.53926938e-04     7.40169562e-05     0.00000000e+00    
           3.52497387e-04     8.07549295e-05     0.00000000e+00    
           3.49618611e-04     8.82562817e-05     0.00000000e+00    
           3.45894543e-04     9.40063692e-05     0.00000000e+00    
           3.42117128e-04     9.65175059e-05     0.00000000e+00    
           3.37189325e-04     9.71798145e-05     0.00000000e+00    
           3.31198185e-04     9.70179826e-05     0.00000000e+00    
           3.18497332e-04     9.28428344e-05     0.00000000e+00    
           3.12695163e-04     8.89072398e-05     0.00000000e+00    
           3.07865004e-04     8.40671200e-05     0.00000000e+00    
           3.04547488e-04     7.83383366e-05     0.00000000e+00    
           3.03048902e-04     7.19544987e-05     0.00000000e+00    
           3.03199631e-04     6.53047318e-05     0.00000000e+00    
           3.05150461e-04     5.96468744e-05     0.00000000e+00    
           3.09092487e-04     5.54912513e-05     0.00000000e+00    
           3.14835954e-04     5.29175304e-05     0.00000000e+00    
           3.22004140e-04     5.15834727e-05     0.00000000e+00    
           3.30572861e-04     5.17380940e-05     0.00000000e+00    
           3.30899871e-04     7.43747369e-05     0.00000000e+00    
           5.19792025e-04     2.45188334e-04     0.00000000e+00    
           5.41520945e-04     2.52205937e-04     0.00000000e+00    
           5.51866018e-04     2.59025896e-04     0.00000000e+00    
           5.53692575e-04     2.65270850e-04     0.00000000e+00    
           5.54226979e-04     2.72521895e-04     0.00000000e+00    
           5.53139776e-04     2.79498636e-04     0.00000000e+00    
           5.50188008e-04     2.85162620e-04     0.00000000e+00    
           5.44965849e-04     2.88944575e-04     0.00000000e+00    
           5.38288208e-04     2.90769211e-04     0.00000000e+00    
           5.30964055e-04     2.91653123e-04     0.00000000e+00    
           5.23654278e-04     2.91514589e-04     0.00000000e+00    
           5.11726073e-04     2.87673203e-04     0.00000000e+00    
           5.05878765e-04     2.83735659e-04     0.00000000e+00    
           5.00875816e-04     2.79009953e-04     0.00000000e+00    
           4.97509143e-04     2.74231395e-04     0.00000000e+00    
           4.95861226e-04     2.69014476e-04     0.00000000e+00    
           4.95880493e-04     2.63110094e-04     0.00000000e+00    
           4.97431611e-04     2.56436964e-04     0.00000000e+00    
           5.00507420e-04     2.49131292e-04     0.00000000e+00    
           5.05276956e-04     2.43944509e-04     0.00000000e+00    
           2.41520946e-04     2.52205937e-04     0.00000000e+00    
           2.19792011e-04     2.45188334e-04     0.00000000e+00    
           2.17935973e-04     2.41547532e-04     0.00000000e+00    
           2.25090349e-04     2.42361653e-04     0.00000000e+00    
           2.32405218e-04     2.44314142e-04     0.00000000e+00    
           2.39120520e-04     2.47309421e-04     0.00000000e+00    
           2.44678347e-04     2.50454381e-04     0.00000000e+00    
           2.98674888e-04     2.11566949e-04     0.00000000e+00    
           3.06363218e-04     2.16550849e-04     0.00000000e+00    
           3.13651282e-04     2.22956325e-04     0.00000000e+00    
           3.17512080e-04     2.28928679e-04     0.00000000e+00    
           3.17623169e-04     2.32580744e-04     0.00000000e+00    
           3.15313722e-04     2.35982574e-04     0.00000000e+00    
           3.12561722e-04     2.40185356e-04     0.00000000e+00    
           3.09065421e-04     2.45138654e-04     0.00000000e+00    
           3.04537592e-04     2.49170378e-04     0.00000000e+00    
           2.99075065e-04     2.51785590e-04     0.00000000e+00    
           2.92063982e-04     2.52636499e-04     0.00000000e+00    
           2.84555979e-04     2.51834135e-04     0.00000000e+00    
           2.69741140e-04     2.47506774e-04     0.00000000e+00    
           2.64929171e-04     2.44708965e-04     0.00000000e+00    
           2.61912384e-04     2.41753412e-04     0.00000000e+00    
           2.59953144e-04     2.37403990e-04     0.00000000e+00    
           2.58947694e-04     2.32090650e-04     0.00000000e+00    
           2.59069115e-04     2.25930213e-04     0.00000000e+00    
           2.60109315e-04     2.19777372e-04     0.00000000e+00    
           2.62173155e-04     2.15171996e-04     0.00000000e+00    
           2.65866518e-04     2.12048821e-04     0.00000000e+00    
           2.70898658e-04     2.09775797e-04     0.00000000e+00    
           2.77011219e-04     2.08285492e-04     0.00000000e+00    
           2.83941423e-04     2.07796184e-04     0.00000000e+00    
           2.85662885e-04     2.31823709e-04     0.00000000e+00    
           4.81599767e-04     2.71795230e-04     0.00000000e+00    
           4.82248230e-04     2.73595739e-04     0.00000000e+00    
           4.82455449e-04     2.75163882e-04     0.00000000e+00    
           4.81868978e-04     2.76237435e-04     0.00000000e+00    
           4.80304181e-04     2.76909559e-04     0.00000000e+00    
           4.78072820e-04     2.77241284e-04     0.00000000e+00    
           4.75253357e-04     2.77149287e-04     0.00000000e+00    
           4.72101907e-04     2.76544481e-04     0.00000000e+00    
           4.68699523e-04     2.75677507e-04     0.00000000e+00    
           4.65985213e-04     2.74574268e-04     0.00000000e+00    
           4.64872865e-04     2.73470767e-04     0.00000000e+00    
           4.65093006e-04     2.72545789e-04     0.00000000e+00    
           4.65423160e-04     2.71331432e-04     0.00000000e+00    
           4.65964666e-04     2.69788230e-04     0.00000000e+00    
           4.66848840e-04     2.67782540e-04     0.00000000e+00    
           4.68103564e-04     2.65619514e-04     0.00000000e+00    
           4.70024417e-04     2.64746021e-04     0.00000000e+00    
           4.72948304e-04     2.65500246e-04     0.00000000e+00    
           4.75816312e-04     2.67257536e-04     0.00000000e+00    
           4.78751783e-04     2.68978591e-04     0.00000000e+00    
           4.73446446e-04     2.72380246e-04     0.00000000e+00    
           2.52576137e-04     1.07571512e-04     0.00000000e+00    
           2.52605532e-04     1.07769243e-04     0.00000000e+00    