<?xml version="1.0"?>
<VTKFile type="UnstructuredGrid" version="0.1">
  <UnstructuredGrid>
    <Piece NumberOfPoints="1636" NumberOfCells="3138">
      <Points>
        <DataArray type="Float32" NumberOfComponents="3">
           5.21582007e-01     5.11657000e-01     0.00000000e+00    
           5.07319987e-01     5.11657000e-01     0.00000000e+00    
           5.11602998e-01     5.13803005e-01     0.00000000e+00    
           5.17298996e-01     5.09510994e-01     0.00000000e+00    
           4.65243995e-01     5.17907977e-01     0.00000000e+00    
           4.65243995e-01     5.11415005e-01     0.00000000e+00    
           4.65243995e-01     5.04921973e-01     0.00000000e+00    
           4.75246996e-01     5.11415005e-01     0.00000000e+00    
           5.33852994e-01     5.04921973e-01     0.00000000e+00    
           5.33852994e-01     5.11415005e-01     0.00000000e+00    
           5.33852994e-01     5.17907977e-01     0.00000000e+00    
           4.83779997e-01     5.34618974e-01     0.00000000e+00    
           4.76381987e-01     5.34618974e-01     0.00000000e+00    
           4.68984991e-01     5.34618974e-01     0.00000000e+00    
           4.76381987e-01     5.23841977e-01     0.00000000e+00    
           4.68984991e-01     4.66010004e-01     0.00000000e+00    
           4.76381987e-01     4.66010004e-01     0.00000000e+00    
           4.83779997e-01     4.66010004e-01     0.00000000e+00    
           4.99920011e-01     5.34618974e-01     0.00000000e+00    
           4.94562000e-01     5.34618974e-01     0.00000000e+00    
           4.89203990e-01     5.34618974e-01     0.00000000e+00    
           4.94562000e-01     5.22280991e-01     0.00000000e+00    
           4.89203990e-01     4.66010004e-01     0.00000000e+00    
           4.94562000e-01     4.66010004e-01     0.00000000e+00    
           4.99920011e-01     4.66010004e-01     0.00000000e+00    
           5.32517016e-01     4.74112004e-01     0.00000000e+00    
           5.17961025e-01     4.74112004e-01     0.00000000e+00    
           5.22153020e-01     4.76040006e-01     0.00000000e+00    
           5.28325021e-01     4.72182989e-01     0.00000000e+00    
           5.33852994e-01     5.19801974e-01     0.00000000e+00    
           5.33852994e-01     5.24702013e-01     0.00000000e+00    
           5.33852994e-01     5.29603004e-01     0.00000000e+00    
           5.19536972e-01     5.24702013e-01     0.00000000e+00    
           4.65243995e-01     5.29603004e-01     0.00000000e+00    
           4.65243995e-01     5.24702013e-01     0.00000000e+00    
           4.65243995e-01     5.19801974e-01     0.00000000e+00    
           4.92487997e-01     5.17117977e-01     0.00000000e+00    
           4.76904988e-01     5.17117977e-01     0.00000000e+00    
           4.81225997e-01     5.18886983e-01     0.00000000e+00    
           4.88168001e-01     5.15349984e-01     0.00000000e+00    
           5.17996013e-01     5.27033985e-01     0.00000000e+00    
           5.04473984e-01     5.27033985e-01     0.00000000e+00    
           5.10882020e-01     5.30395985e-01     0.00000000e+00    
           5.11587977e-01     5.23671985e-01     0.00000000e+00    
           5.08446991e-01     4.83435005e-01     0.00000000e+00    
           4.94414002e-01     4.83435005e-01     0.00000000e+00    
           5.03341019e-01     4.86377001e-01     0.00000000e+00    
           4.99518991e-01     4.80491996e-01     0.00000000e+00    
           4.65243995e-01     4.83101994e-01     0.00000000e+00    
           4.65243995e-01     4.78758007e-01     0.00000000e+00    
           4.65243995e-01     4.74415004e-01     0.00000000e+00    
           4.78336990e-01     4.78758007e-01     0.00000000e+00    
           4.69897985e-01     4.81519997e-01     0.00000000e+00    
           4.72241998e-01     4.75997001e-01     0.00000000e+00    
           5.33852994e-01     4.74415004e-01     0.00000000e+00    
           5.33852994e-01     4.78758007e-01     0.00000000e+00    
           5.33852994e-01     4.83101994e-01     0.00000000e+00    
           4.80668008e-01     4.95810986e-01     0.00000000e+00    
           4.66084987e-01     4.95810986e-01     0.00000000e+00    
           4.72070009e-01     4.99215007e-01     0.00000000e+00    
           4.74682987e-01     4.92406994e-01     0.00000000e+00    
           4.93930012e-01     4.79214013e-01     0.00000000e+00    
           4.78967011e-01     4.79214013e-01     0.00000000e+00    
           4.87289995e-01     4.82858986e-01     0.00000000e+00    
           4.85606998e-01     4.75569010e-01     0.00000000e+00    
           5.09284973e-01     4.97658014e-01     0.00000000e+00    
           4.95503992e-01     4.97658014e-01     0.00000000e+00    
           5.00939012e-01     5.00781000e-01     0.00000000e+00    
           5.03850996e-01     4.94536012e-01     0.00000000e+00    
           5.33011973e-01     5.01751006e-01     0.00000000e+00    
           5.17829001e-01     5.01751006e-01     0.00000000e+00    
           5.29196024e-01     5.02147973e-01     0.00000000e+00    
           5.21646023e-01     5.01353979e-01     0.00000000e+00    
           4.95451003e-01     5.00564992e-01     0.00000000e+00    
           4.80922014e-01     5.00564992e-01     0.00000000e+00    
           4.86593992e-01     5.03829002e-01     0.00000000e+00    
           4.89778996e-01     4.97299999e-01     0.00000000e+00    
           5.25367022e-01     4.88312006e-01     0.00000000e+00    
           5.09521008e-01     4.88312006e-01     0.00000000e+00    
           5.15170991e-01     4.91557002e-01     0.00000000e+00    
           5.19716024e-01     4.85067010e-01     0.00000000e+00    
           4.65243995e-01     5.34618974e-01     0.00000000e+00    
           4.65243995e-01     4.66010004e-01     0.00000000e+00    
           5.33852994e-01     4.66010004e-01     0.00000000e+00    
           5.33852994e-01     5.34618974e-01     0.00000000e+00    
           5.21338999e-01     5.13502657e-01     0.00000000e+00    
           5.20626605e-01     5.15222490e-01     0.00000000e+00    
           5.19493401e-01     5.16699374e-01     0.00000000e+00    
           5.18016517e-01     5.17832637e-01     0.00000000e+00    
           5.16296625e-01     5.18545032e-01     0.00000000e+00    
           5.14451027e-01     5.18787980e-01     0.00000000e+00    
           5.12605369e-01     5.18545032e-01     0.00000000e+00    
           5.10885477e-01     5.17832637e-01     0.00000000e+00    
           5.09408593e-01     5.16699374e-01     0.00000000e+00    
           5.08275390e-01     5.15222490e-01     0.00000000e+00    
           5.07562995e-01     5.13502657e-01     0.00000000e+00    
           5.07562995e-01     5.09811342e-01     0.00000000e+00    
           5.08275390e-01     5.08091509e-01     0.00000000e+00    
           5.09408593e-01     5.06614625e-01     0.00000000e+00    
           5.10885477e-01     5.05481362e-01     0.00000000e+00    
           5.12605369e-01     5.04768968e-01     0.00000000e+00    
           5.14451027e-01     5.04526019e-01     0.00000000e+00    
           5.16296625e-01     5.04768968e-01     0.00000000e+00    
           5.18016517e-01     5.05481362e-01     0.00000000e+00    
           5.19493401e-01     5.06614625e-01     0.00000000e+00    
           5.20626605e-01     5.08091509e-01     0.00000000e+00    
           5.21338999e-01     5.09811342e-01     0.00000000e+00    
           5.14451027e-01     5.11657000e-01     0.00000000e+00    
           4.65243995e-01     5.16254604e-01     0.00000000e+00    
           4.65243995e-01     5.14134228e-01     0.00000000e+00    
           4.65243995e-01     5.08695781e-01     0.00000000e+00    
           4.65243995e-01     5.06575406e-01     0.00000000e+00    
           4.66931671e-01     5.04409373e-01     0.00000000e+00    
           4.68693614e-01     5.04328012e-01     0.00000000e+00    
           4.70421344e-01     5.04682958e-01     0.00000000e+00    
           4.72008497e-01     5.05452335e-01     0.00000000e+00    
           4.73357379e-01     5.06588817e-01     0.00000000e+00    
           4.74384934e-01     5.08022368e-01     0.00000000e+00    
           4.75027919e-01     5.09664834e-01     0.00000000e+00    
           4.75028187e-01     5.13165236e-01     0.00000000e+00    
           4.74385172e-01     5.14807761e-01     0.00000000e+00    
           4.73357558e-01     5.16241372e-01     0.00000000e+00    
           4.72008646e-01     5.17377913e-01     0.00000000e+00    
           4.70421433e-01     5.18147290e-01     0.00000000e+00    
           4.68693614e-01     5.18502235e-01     0.00000000e+00    
           4.66931641e-01     5.18420875e-01     0.00000000e+00    
           5.33852994e-01     5.06575406e-01     0.00000000e+00    
           5.33852994e-01     5.08695781e-01     0.00000000e+00    
           5.33852994e-01     5.14134228e-01     0.00000000e+00    
           5.33852994e-01     5.16254604e-01     0.00000000e+00    
           5.32303810e-01     5.16964078e-01     0.00000000e+00    
           5.31043947e-01     5.15658796e-01     0.00000000e+00    
           5.30155540e-01     5.14077127e-01     0.00000000e+00    
           5.29696345e-01     5.12322068e-01     0.00000000e+00    
           5.29696345e-01     5.10507941e-01     0.00000000e+00    
           5.30155540e-01     5.08752882e-01     0.00000000e+00    
           5.31043947e-01     5.07171214e-01     0.00000000e+00    
           5.32303810e-01     5.05865932e-01     0.00000000e+00    
           4.81947482e-01     5.34618974e-01     0.00000000e+00    
           4.79541332e-01     5.34618974e-01     0.00000000e+00    
           4.73223150e-01     5.34618974e-01     0.00000000e+00    
           4.70817327e-01     5.34618974e-01     0.00000000e+00    
           4.68517244e-01     5.32760799e-01     0.00000000e+00    
[...]
      <PointData>
        <DataArray type="Float32" Name="Displacement" NumberOfComponents="3">
           2.16884640e-04     9.66431762e-05     0.00000000e+00    
           2.12207626e-04     1.12294103e-04     0.00000000e+00    
           2.16965942e-04     1.08679342e-04     0.00000000e+00    
           2.13017833e-04     9.99629556e-05     0.00000000e+00    
           9.83358623e-05     1.01281556e-04     0.00000000e+00    
           8.84551555e-05     9.62436607e-05     0.00000000e+00    
           8.05296804e-05     9.25885543e-05     0.00000000e+00    
           9.46322034e-05     9.07170470e-05     0.00000000e+00    
           2.30529680e-04     9.25885543e-05     0.00000000e+00    
           2.38455148e-04     9.62436607e-05     0.00000000e+00    
           2.48335855e-04     1.01281556e-04     0.00000000e+00    
           1.72693894e-04     1.35004128e-04     0.00000000e+00    
           1.70153988e-04     1.47662387e-04     0.00000000e+00    
           1.67485399e-04     1.59254603e-04     0.00000000e+00    
           1.49107625e-04     1.42657373e-04     0.00000000e+00    
           1.74854013e-05     9.25459972e-06     0.00000000e+00    
           2.01539842e-05    -2.33761307e-06     0.00000000e+00    
           2.26938973e-05    -1.49958769e-05     0.00000000e+00    
           1.98374255e-04     1.22689788e-04     0.00000000e+00    
           1.96422377e-04     1.27582913e-04     0.00000000e+00    
           1.94595807e-04     1.33459369e-04     0.00000000e+00    
           1.79007795e-04     1.22889585e-04     0.00000000e+00    
           4.45958067e-05    -1.65406273e-05     0.00000000e+00    
           4.64223704e-05    -2.24170835e-05     0.00000000e+00    
           4.83742551e-05    -2.73102087e-05     0.00000000e+00    
           1.70235202e-04     2.69826669e-05     0.00000000e+00    
           1.62443917e-04     4.77340691e-05     0.00000000e+00    
           1.67096674e-04     4.30051878e-05     0.00000000e+00    
           1.63445526e-04     3.16956830e-05     0.00000000e+00    
           2.55666935e-04     1.20865734e-04     0.00000000e+00    
           2.65470328e-04     1.24543556e-04     0.00000000e+00    
           2.74384685e-04     1.26967876e-04     0.00000000e+00    
           2.58715532e-04     1.45150800e-04     0.00000000e+00    
           1.24384678e-04     1.26967876e-04     0.00000000e+00    
           1.15470342e-04     1.24543556e-04     0.00000000e+00    
           1.05666935e-04     1.20865734e-04     0.00000000e+00    
           1.45602797e-04     1.04376573e-04     0.00000000e+00    
           1.38404474e-04     1.25097635e-04     0.00000000e+00    
           1.44220641e-04     1.20974822e-04     0.00000000e+00    
           1.40826072e-04     1.10201290e-04     0.00000000e+00    
           2.40400754e-04     1.35143069e-04     0.00000000e+00    
           2.32394537e-04     1.36957577e-04     0.00000000e+00    
           2.37820030e-04     1.37419818e-04     0.00000000e+00    
           2.35626183e-04     1.34764574e-04     0.00000000e+00    
           1.24606566e-04     5.28209712e-05     0.00000000e+00    
           1.12500420e-04     5.05375829e-05     0.00000000e+00    
           1.22083642e-04     5.37538908e-05     0.00000000e+00    
           1.15513350e-04     5.12925726e-05     0.00000000e+00    
           5.40997607e-05     3.87871805e-05     0.00000000e+00    
           4.51852975e-05     3.65696651e-05     0.00000000e+00    
           3.80496058e-05     3.52657044e-05     0.00000000e+00    
           5.59645705e-05     2.09505779e-05     0.00000000e+00    
           5.34218016e-05     3.20508225e-05     0.00000000e+00    
           4.60496303e-05     2.71293684e-05     0.00000000e+00    
           1.88049613e-04     3.52657044e-05     0.00000000e+00    
           1.95185290e-04     3.65696651e-05     0.00000000e+00    
           2.04099764e-04     3.87871805e-05     0.00000000e+00    
           9.23664775e-05     6.79859877e-05     0.00000000e+00    
           8.49003773e-05     7.46658261e-05     0.00000000e+00    
           8.97103746e-05     7.24926576e-05     0.00000000e+00    
           8.61065419e-05     6.83093895e-05     0.00000000e+00    
           8.45666800e-05     2.73535261e-05     0.00000000e+00    
           7.08333100e-05     2.89441377e-05     0.00000000e+00    
           8.09791018e-05     2.79997730e-05     0.00000000e+00    
           7.43145793e-05     2.65558156e-05     0.00000000e+00    
           1.40905904e-04     6.46004264e-05     0.00000000e+00    
           1.32538291e-04     7.38149392e-05     0.00000000e+00    
           1.39762298e-04     7.05917628e-05     0.00000000e+00    
           1.35368318e-04     6.58622957e-05     0.00000000e+00    
           2.12832441e-04     7.76993111e-05     0.00000000e+00    
           2.06091296e-04     9.28677910e-05     0.00000000e+00    
           2.12010360e-04     8.23765731e-05     0.00000000e+00    
           2.06616227e-04     8.73321696e-05     0.00000000e+00    
           1.23846126e-04     7.32886110e-05     0.00000000e+00    
           1.13702059e-04     8.18956978e-05     0.00000000e+00    
           1.19911201e-04     8.05067320e-05     0.00000000e+00    
           1.16852825e-04     7.62881900e-05     0.00000000e+00    
           1.73978944e-04     6.38145575e-05     0.00000000e+00    
           1.65339065e-04     7.47494560e-05     0.00000000e+00    
           1.74051354e-04     7.41261902e-05     0.00000000e+00    
           1.68782281e-04     6.76783966e-05     0.00000000e+00    
           1.50000007e-04     1.50000007e-04     0.00000000e+00    
           0.00000000e+00     0.00000000e+00     0.00000000e+00    
           1.50000007e-04     0.00000000e+00     0.00000000e+00    
           3.00000014e-04     1.50000007e-04     0.00000000e+00    
           2.19405774e-04     9.81195190e-05     0.00000000e+00    
           2.21902359e-04     9.99816330e-05     0.00000000e+00    
           2.23840092e-04     1.02034508e-04     0.00000000e+00    
           2.24959585e-04     1.03970822e-04     0.00000000e+00    
           2.25284384e-04     1.06155458e-04     0.00000000e+00    
           2.24917923e-04     1.08442371e-04     0.00000000e+00    
           2.24137228e-04     1.10417190e-04     0.00000000e+00    
           2.22710354e-04     1.11711575e-04     0.00000000e+00    
           2.20526083e-04     1.12545655e-04     0.00000000e+00    
           2.17946450e-04     1.12912581e-04     0.00000000e+00    
           2.15147913e-04     1.12875772e-04     0.00000000e+00    
           2.09288162e-04     1.11028006e-04     0.00000000e+00    
           2.06640791e-04     1.09335546e-04     0.00000000e+00    
           2.04570984e-04     1.07385735e-04     0.00000000e+00    
           2.03326097e-04     1.05503204e-04     0.00000000e+00    
           2.03204603e-04     1.03577317e-04     0.00000000e+00    
           2.04075797e-04     1.01669655e-04     0.00000000e+00    
           2.05554039e-04     9.96802191e-05     0.00000000e+00    
           2.07808655e-04     9.75257426e-05     0.00000000e+00    
           2.10935556e-04     9.52951304e-05     0.00000000e+00    
           2.12677362e-04     9.52171613e-05     0.00000000e+00    
           2.14414278e-04     9.57284719e-05     0.00000000e+00    
           2.14804648e-04     1.04429200e-04     0.00000000e+00    
           9.59203026e-05     1.00135621e-04     0.00000000e+00    
           9.28244990e-05     9.85259321e-05     0.00000000e+00    
           8.39076674e-05     9.41720791e-05     0.00000000e+00    
           8.11751815e-05     9.30986353e-05     0.00000000e+00    
           8.19522538e-05     9.21671526e-05     0.00000000e+00    
           8.31625584e-05     9.15390119e-05     0.00000000e+00    
           8.42398076e-05     9.06365312e-05     0.00000000e+00    
           8.56717597e-05     9.00083396e-05     0.00000000e+00    
           8.73741592e-05     8.97276041e-05     0.00000000e+00    
           8.95583944e-05     8.96561251e-05     0.00000000e+00    
           9.19494705e-05     9.00312371e-05     0.00000000e+00    
           9.70429974e-05     9.15774144e-05     0.00000000e+00    
           9.86435261e-05     9.23548214e-05     0.00000000e+00    
           9.95650480e-05     9.33126939e-05     0.00000000e+00    
           1.00043268e-04     9.45100837e-05     0.00000000e+00    
           1.00320649e-04     9.59736499e-05     0.00000000e+00    
           1.00160920e-04     9.75378571e-05     0.00000000e+00    
           9.94531583e-05     9.92490168e-05     0.00000000e+00    
           2.31175189e-04     9.30986353e-05     0.00000000e+00    
           2.33907660e-04     9.41720791e-05     0.00000000e+00    
           2.42824492e-04     9.85259321e-05     0.00000000e+00    
           2.45920295e-04     1.00135621e-04     0.00000000e+00    
           2.46649608e-04     1.02935403e-04     0.00000000e+00    
           2.44603900e-04     1.03338287e-04     0.00000000e+00    
           2.42084017e-04     1.02799720e-04     0.00000000e+00    
           2.39131317e-04     1.01831807e-04     0.00000000e+00    
           2.35807674e-04     1.00096950e-04     0.00000000e+00    
           2.32102218e-04     9.73877613e-05     0.00000000e+00    
           2.28246994e-04     9.35078715e-05     0.00000000e+00    
           2.28897203e-04     9.22711042e-05     0.00000000e+00    
           1.72158281e-04     1.38297837e-04     0.00000000e+00    
           1.71352731e-04     1.42436344e-04     0.00000000e+00    
           1.68947139e-04     1.52731111e-04     0.00000000e+00    
           1.68097933e-04     1.56421782e-04     0.00000000e+00    
           1.63055331e-04     1.58749695e-04     0.00000000e+00    
           1.58770505e-04     1.57527509e-04     0.00000000e+00    
           1.55049216e-04     1.55925663e-04     0.00000000e+00    
           1.52292952e-04     1.53975765e-04     0.00000000e+00    
           1.50418768e-04     1.51509215e-04     0.00000000e+00    
           1.49223357e-04     1.48679159e-04     0.00000000e+00    
           1.48755731e-04     1.45659767e-04     0.00000000e+00    
           1.50419000e-04     1.39500888e-04     0.00000000e+00    
           1.52333538e-04     1.36586546e-04     0.00000000e+00    
           1.54786816e-04     1.34448856e-04     0.00000000e+00    
           1.57909992e-04     1.33075882e-04     0.00000000e+00    
           1.61627759e-04     1.32378176e-04     0.00000000e+00    
           1.65399892e-04     1.32391957e-04     0.00000000e+00    
           1.69126040e-04     1.33184614e-04     0.00000000e+00    
           1.80979350e-05     6.42178065e-06     0.00000000e+00    
           1.89471411e-05     2.73110686e-06     0.00000000e+00    
           2.13527346e-05    -7.56365580e-06     0.00000000e+00    
           2.21582759e-05    -1.17021618e-05     0.00000000e+00    
           2.60367651e-05    -1.24450889e-05     0.00000000e+00    
           2.88166448e-05    -9.34266154e-06     0.00000000e+00    
           3.06371294e-05    -6.16564876e-06     0.00000000e+00    
           3.12753218e-05    -3.03839943e-06     0.00000000e+00    
           3.08538183e-05     3.47680270e-07     0.00000000e+00    
           2.97055449e-05     3.66768109e-06     0.00000000e+00    
           2.77868439e-05     6.30332488e-06     0.00000000e+00    
           2.50047924e-05     7.91221919e-06     0.00000000e+00    
           2.14325519e-05     8.89725652e-06     0.00000000e+00    
           1.97565401e-04     1.24678481e-04     0.00000000e+00    
           1.95364482e-04     1.30860150e-04     0.00000000e+00    
           1.91868661e-04     1.33999565e-04     0.00000000e+00    
           1.88962236e-04     1.33993555e-04     0.00000000e+00    
           1.86039804e-04     1.33403184e-04     0.00000000e+00    
           1.83087657e-04     1.32022542e-04     0.00000000e+00    
           1.79874958e-04     1.29528533e-04     0.00000000e+00    
           1.77268521e-04     1.26515413e-04     0.00000000e+00    
           1.76543981e-04     1.24493410e-04     0.00000000e+00    
           1.77435970e-04     1.23658523e-04     0.00000000e+00    
           1.80815056e-04     1.21842008e-04     0.00000000e+00    
           1.82984513e-04     1.20817764e-04     0.00000000e+00    
           1.85646146e-04     1.20029763e-04     0.00000000e+00    
           1.88556282e-04     1.19501157e-04     0.00000000e+00    
           1.91300540e-04     1.19238517e-04     0.00000000e+00    
           1.93573927e-04     1.19358985e-04     0.00000000e+00    
           1.95330955e-04     1.19905497e-04     0.00000000e+00    
           1.96914640e-04     1.21081917e-04     0.00000000e+00    
           4.53644861e-05    -1.91398540e-05     0.00000000e+00    
           4.75654051e-05    -2.53215148e-05     0.00000000e+00    
           4.94522174e-05    -2.53701965e-05     0.00000000e+00    
           4.99787457e-05    -2.33049141e-05     0.00000000e+00    
           4.98062655e-05    -2.12764498e-05     0.00000000e+00    
           4.87876641e-05    -1.93246669e-05     0.00000000e+00    
           4.70478299e-05    -1.76937265e-05     0.00000000e+00    
           1.74467452e-04     2.85784208e-05     0.00000000e+00    
           1.76285888e-04     3.01167129e-05     0.00000000e+00    
           1.76798145e-04     3.16455516e-05     0.00000000e+00    
           1.77075359e-04     3.40111947e-05     0.00000000e+00    
           1.76963469e-04     3.70084781e-05     0.00000000e+00    
           1.76248694e-04     4.03774648e-05     0.00000000e+00    
           1.74809305e-04     4.41281409e-05     0.00000000e+00    
           1.72947271e-04     4.70031846e-05     0.00000000e+00    
           1.71058564e-04     4.82587529e-05     0.00000000e+00    
           1.68594663e-04     4.85899072e-05     0.00000000e+00    
           1.65599093e-04     4.85089913e-05     0.00000000e+00    
           1.59248666e-04     4.64214172e-05     0.00000000e+00    
           1.56347582e-04     4.44536199e-05     0.00000000e+00    
           1.53932502e-04     4.20335600e-05     0.00000000e+00    
           1.52273744e-04     3.91691683e-05     0.00000000e+00    
           1.51524451e-04     3.59772494e-05     0.00000000e+00    
           1.51599816e-04     3.26523659e-05     0.00000000e+00    
           1.52575230e-04     2.98234372e-05     0.00000000e+00    
           1.54546244e-04     2.77456256e-05     0.00000000e+00    
           1.57417977e-04     2.64587652e-05     0.00000000e+00    
           1.61002070e-04     2.57917363e-05     0.00000000e+00    
           1.65286430e-04     2.58690470e-05     0.00000000e+00    
           1.65449936e-04     3.71873684e-05     0.00000000e+00    
           2.59896013e-04     1.22594167e-04     0.00000000e+00    
           2.70760473e-04     1.26102968e-04     0.00000000e+00    
           2.75933009e-04     1.29512948e-04     0.00000000e+00    
           2.76846287e-04     1.32635425e-04     0.00000000e+00    
           2.77113490e-04     1.36260947e-04     0.00000000e+00    
           2.76569888e-04     1.39749318e-04     0.00000000e+00    
           2.75094004e-04     1.42581310e-04     0.00000000e+00    
           2.72482925e-04     1.44472288e-04     0.00000000e+00    
           2.69144104e-04     1.45384605e-04     0.00000000e+00    
           2.65482027e-04     1.45826561e-04     0.00000000e+00    
           2.61827139e-04     1.45757294e-04     0.00000000e+00    
           2.55863037e-04     1.43836602e-04     0.00000000e+00    
           2.52939382e-04     1.41867829e-04     0.00000000e+00    
           2.50437908e-04     1.39504977e-04     0.00000000e+00    
           2.48754572e-04     1.37115698e-04     0.00000000e+00    
           2.47930613e-04     1.34507238e-04     0.00000000e+00    
           2.47940246e-04     1.31555047e-04     0.00000000e+00    
           2.48715805e-04     1.28218482e-04     0.00000000e+00    
           2.50253710e-04     1.24565646e-04     0.00000000e+00    
           2.52638478e-04     1.21972254e-04     0.00000000e+00    
           1.20760473e-04     1.26102968e-04     0.00000000e+00    
           1.09896006e-04     1.22594167e-04     0.00000000e+00    
           1.08967986e-04     1.20773766e-04     0.00000000e+00    
           1.12545174e-04     1.21180827e-04     0.00000000e+00    
           1.16202609e-04     1.22157071e-04     0.00000000e+00    
           1.19560260e-04     1.23654710e-04     0.00000000e+00    
           1.22339174e-04     1.25227190e-04     0.00000000e+00    
           1.49337444e-04     1.05783474e-04     0.00000000e+00    
           1.53181609e-04     1.08275424e-04     0.00000000e+00    
           1.56825641e-04     1.11478163e-04     0.00000000e+00    
           1.58756040e-04     1.14464339e-04     0.00000000e+00    
           1.58811585e-04     1.16290372e-04     0.00000000e+00    
           1.57656861e-04     1.17991287e-04     0.00000000e+00    
           1.56280861e-04     1.20092678e-04     0.00000000e+00    
           1.54532710e-04     1.22569327e-04     0.00000000e+00    
           1.52268796e-04     1.24585189e-04     0.00000000e+00    
           1.49537533e-04     1.25892795e-04     0.00000000e+00    
           1.46031991e-04     1.26318249e-04     0.00000000e+00    
           1.42277990e-04     1.25917068e-04     0.00000000e+00    
           1.34870570e-04     1.23753387e-04     0.00000000e+00    
           1.32464585e-04     1.22354482e-04     0.00000000e+00    
           1.30956192e-04     1.20876706e-04     0.00000000e+00    
           1.29976572e-04     1.18701995e-04     0.00000000e+00    
           1.29473847e-04     1.16045325e-04     0.00000000e+00    
           1.29534557e-04     1.12965106e-04     0.00000000e+00    
           1.30054657e-04     1.09888686e-04     0.00000000e+00    
           1.31086577e-04     1.07585998e-04     0.00000000e+00    
           1.32933259e-04     1.06024410e-04     0.00000000e+00    
           1.35449329e-04     1.04887898e-04     0.00000000e+00    
           1.38505609e-04     1.04142746e-04     0.00000000e+00    
           1.41970711e-04     1.03898092e-04     0.00000000e+00    
           1.42831443e-04     1.15911855e-04     0.00000000e+00    
           2.40799884e-04     1.35897615e-04     0.00000000e+00    
           2.41124115e-04     1.36797869e-04     0.00000000e+00    
           2.41227724e-04     1.37581941e-04     0.00000000e+00    
           2.40934489e-04     1.38118718e-04     0.00000000e+00    
           2.40152091e-04     1.38454780e-04     0.00000000e+00    
           2.39036410e-04     1.38620642e-04     0.00000000e+00    
           2.37626678e-04     1.38574644e-04     0.00000000e+00    
           2.36050953e-04     1.38272240e-04     0.00000000e+00    
           2.34349762e-04     1.37838753e-04     0.00000000e+00    
           2.32992606e-04     1.37287134e-04     0.00000000e+00    
           2.32436432e-04     1.36735383e-04     0.00000000e+00    
           2.32546503e-04     1.36272894e-04     0.00000000e+00    
           2.32711580e-04     1.35665716e-04     0.00000000e+00    
           2.32982333e-04     1.34894115e-04     0.00000000e+00    
           2.33424420e-04     1.33891270e-04     0.00000000e+00    
           2.34051782e-04     1.32809757e-04     0.00000000e+00    
           2.35012209e-04     1.32373010e-04     0.00000000e+00    
           2.36474152e-04     1.32750123e-04     0.00000000e+00    
           2.37908156e-04     1.33628768e-04     0.00000000e+00    
           2.39375891e-04     1.34489295e-04     0.00000000e+00    
           2.36723223e-04     1.36190123e-04     0.00000000e+00    
           1.26288069e-04     5.37857559e-05     0.00000000e+00    
           1.26302766e-04     5.38846216e-05     0.00000000e+00    