<?xml version="1.0"?>
<VTKFile type="UnstructuredGrid" version="0.1">
  <UnstructuredGrid>
    <Piece NumberOfPoints="1636" NumberOfCells="3138">
      <Points>
        <DataArray type="Float32" NumberOfComponents="3">
           5.21582007e-01     5.11657000e-01     0.00000000e+00    
           5.07319987e-01     5.11657000e-01     0.00000000e+00    
           5.11602998e-01     5.13803005e-01     0.00000000e+00    
           5.17298996e-01     5.09510994e-01     0.00000000e+00    
           4.65243995e-01     5.17907977e-01     0.00000000e+00    
           4.65243995e-01     5.11415005e-01     0.00000000e+00    
           4.65243995e-01     5.04921973e-01     0.00000000e+00    
           4.75246996e-01     5.11415005e-01     0.00000000e+00    
           5.33852994e-01     5.04921973e-01     0.00000000e+00    
           5.33852994e-01     5.11415005e-01     0.00000000e+00    
           5.33852994e-01     5.17907977e-01     0.00000000e+00    
           4.83779997e-01     5.34618974e-01     0.00000000e+00    
           4.76381987e-01     5.34618974e-01     0.00000000e+00    
           4.68984991e-01     5.34618974e-01     0.00000000e+00    
           4.76381987e-01     5.23841977e-01     0.00000000e+00    
           4.68984991e-01     4.66010004e-01     0.00000000e+00    
           4.76381987e-01     4.66010004e-01     0.00000000e+00    
           4.83779997e-01     4.66010004e-01     0.00000000e+00    
           4.99920011e-01     5.34618974e-01     0.00000000e+00    
           4.94562000e-01     5.34618974e-01     0.00000000e+00    
           4.89203990e-01     5.34618974e-01     0.00000000e+00    
           4.94562000e-01     5.22280991e-01     0.00000000e+00    
           4.89203990e-01     4.66010004e-01     0.00000000e+00    
           4.94562000e-01     4.66010004e-01     0.00000000e+00    
           4.99920011e-01     4.66010004e-01     0.00000000e+00    
           5.32517016e-01     4.74112004e-01     0.00000000e+00    
           5.17961025e-01     4.74112004e-01     0.00000000e+00    
           5.22153020e-01     4.76040006e-01     0.00000000e+00    
           5.28325021e-01     4.72182989e-01     0.00000000e+00    
           5.33852994e-01     5.19801974e-01     0.00000000e+00    
           5.33852994e-01     5.24702013e-01     0.00000000e+00    
           5.33852994e-01     5.29603004e-01     0.00000000e+00    
           5.19536972e-01     5.24702013e-01     0.00000000e+00    
           4.65243995e-01     5.29603004e-01     0.00000000e+00    
           4.65243995e-01     5.24702013e-01     0.00000000e+00    
           4.65243995e-01     5.19801974e-01     0.00000000e+00    
           4.92487997e-01     5.17117977e-01     0.00000000e+00    
           4.76904988e-01     5.17117977e-01     0.00000000e+00    
           4.81225997e-01     5.18886983e-01     0.00000000e+00    
           4.88168001e-01     5.15349984e-01     0.00000000e+00    
           5.17996013e-01     5.27033985e-01     0.00000000e+00    
           5.04473984e-01     5.27033985e-01     0.00000000e+00    
           5.10882020e-01     5.30395985e-01     0.00000000e+00    
           5.11587977e-01     5.23671985e-01     0.00000000e+00    
           5.08446991e-01     4.83435005e-01     0.00000000e+00    
           4.94414002e-01     4.83435005e-01     0.00000000e+00    
           5.03341019e-01     4.86377001e-01     0.00000000e+00    
           4.99518991e-01     4.80491996e-01     0.00000000e+00    
           4.65243995e-01     4.83101994e-01     0.00000000e+00    
           4.65243995e-01     4.78758007e-01     0.00000000e+00    
           4.65243995e-01     4.74415004e-01     0.00000000e+00    
           4.78336990e-01     4.78758007e-01     0.00000000e+00    
           4.69897985e-01     4.81519997e-01     0.00000000e+00    
           4.72241998e-01     4.75997001e-01     0.00000000e+00    
           5.33852994e-01     4.74415004e-01     0.00000000e+00    
           5.33852994e-01     4.78758007e-01     0.00000000e+00    
           5.33852994e-01     4.83101994e-01     0.00000000e+00    
           4.80668008e-01     4.95810986e-01     0.00000000e+00    
           4.66084987e-01     4.95810986e-01     0.00000000e+00    
           4.72070009e-01     4.99215007e-01     0.00000000e+00    
           4.74682987e-01     4.92406994e-01     0.00000000e+00    
           4.93930012e-01     4.79214013e-01     0.00000000e+00    
           4.78967011e-01     4.79214013e-01     0.00000000e+00    
           4.87289995e-01     4.82858986e-01     0.00000000e+00    
           4.85606998e-01     4.75569010e-01     0.00000000e+00    
           5.09284973e-01     4.97658014e-01     0.00000000e+00    
           4.95503992e-01     4.97658014e-01     0.00000000e+00    
           5.00939012e-01     5.00781000e-01     0.00000000e+00    
           5.03850996e-01     4.94536012e-01     0.00000000e+00    
           5.33011973e-01     5.01751006e-01     0.00000000e+00    
           5.17829001e-01     5.01751006e-01     0.00000000e+00    
           5.29196024e-01     5.02147973e-01     0.00000000e+00    
           5.21646023e-01     5.01353979e-01     0.00000000e+00    
           4.95451003e-01     5.00564992e-01     0.00000000e+00    
           4.80922014e-01     5.00564992e-01     0.00000000e+00    
           4.86593992e-01     5.03829002e-01     0.00000000e+00    
           4.89778996e-01     4.97299999e-01     0.00000000e+00    
           5.25367022e-01     4.88312006e-01     0.00000000e+00    
           5.09521008e-01     4.88312006e-01     0.00000000e+00    
           5.15170991e-01     4.91557002e-01     0.00000000e+00    
           5.19716024e-01     4.85067010e-01     0.00000000e+00    
           4.65243995e-01     5.34618974e-01     0.00000000e+00    
           4.65243995e-01     4.66010004e-01     0.00000000e+00    
           5.33852994e-01     4.66010004e-01     0.00000000e+00    
           5.33852994e-01     5.34618974e-01     0.00000000e+00    
           5.21338999e-01     5.13502657e-01     0.00000000e+00    
           5.20626605e-01     5.15222490e-01     0.00000000e+00    
           5.19493401e-01     5.16699374e-01     0.00000000e+00    
           5.18016517e-01     5.17832637e-01     0.00000000e+00    
           5.16296625e-01     5.18545032e-01     0.00000000e+00    
           5.14451027e-01     5.18787980e-01     0.00000000e+00    
           5.12605369e-01     5.18545032e-01     0.00000000e+00    
           5.10885477e-01     5.17832637e-01     0.00000000e+00    
           5.09408593e-01     5.16699374e-01     0.00000000e+00    
           5.08275390e-01     5.15222490e-01     0.00000000e+00    
           5.07562995e-01     5.13502657e-01     0.00000000e+00    
           5.07562995e-01     5.09811342e-01     0.00000000e+00    
           5.08275390e-01     5.08091509e-01     0.00000000e+00    
           5.09408593e-01     5.06614625e-01     0.00000000e+00    
           5.10885477e-01     5.05481362e-01     0.00000000e+00    
           5.12605369e-01     5.04768968e-01     0.00000000e+00    
           5.14451027e-01     5.04526019e-01     0.00000000e+00    
           5.16296625e-01     5.04768968e-01     0.00000000e+00    
           5.18016517e-01     5.05481362e-01     0.00000000e+00    
           5.19493401e-01     5.06614625e-01     0.00000000e+00    
           5.20626605e-01     5.08091509e-01     0.00000000e+00    
           5.21338999e-01     5.09811342e-01     0.00000000e+00    
           5.14451027e-01     5.11657000e-01     0.00000000e+00    
           4.65243995e-01     5.16254604e-01     0.00000000e+00    
           4.65243995e-01     5.14134228e-01     0.00000000e+00    
           4.65243995e-01     5.08695781e-01     0.00000000e+00    
           4.65243995e-01     5.06575406e-01     0.00000000e+00    
           4.66931671e-01     5.04409373e-01     0.00000000e+00    
           4.68693614e-01     5.04328012e-01     0.00000000e+00    
           4.70421344e-01     5.04682958e-01     0.00000000e+00    
           4.72008497e-01     5.05452335e-01     0.00000000e+00    
           4.73357379e-01     5.06588817e-01     0.00000000e+00    
           4.74384934e-01     5.08022368e-01     0.00000000e+00    
           4.75027919e-01     5.09664834e-01     0.00000000e+00    
           4.75028187e-01     5.13165236e-01     0.00000000e+00    
           4.74385172e-01     5.14807761e-01     0.00000000e+00    
           4.73357558e-01     5.16241372e-01     0.00000000e+00    
           4.72008646e-01     5.17377913e-01     0.00000000e+00    
           4.70421433e-01     5.18147290e-01     0.00000000e+00    
           4.68693614e-01     5.18502235e-01     0.00000000e+00    
           4.66931641e-01     5.18420875e-01     0.00000000e+00    
           5.33852994e-01     5.06575406e-01     0.00000000e+00    
           5.33852994e-01     5.08695781e-01     0.00000000e+00    
           5.33852994e-01     5.14134228e-01     0.00000000e+00    
           5.33852994e-01     5.16254604e-01     0.00000000e+00    
           5.32303810e-01     5.16964078e-01     0.00000000e+00    
           5.31043947e-01     5.15658796e-01     0.00000000e+00    
           5.30155540e-01     5.14077127e-01     0.00000000e+00    
           5.29696345e-01     5.12322068e-01     0.00000000e+00    
           5.29696345e-01     5.10507941e-01     0.00000000e+00    
           5.30155540e-01     5.08752882e-01     0.00000000e+00    
           5.31043947e-01     5.07171214e-01     0.00000000e+00    
           5.32303810e-01     5.05865932e-01     0.00000000e+00    
           4.81947482e-01     5.34618974e-01     0.00000000e+00    
           4.79541332e-01     5.34618974e-01     0.00000000e+00    
           4.73223150e-01     5.34618974e-01     0.00000000e+00    
           4.70817327e-01     5.34618974e-01     0.00000000e+00    
           4.68517244e-01     5.32760799e-01     0.00000000e+00    
[...]
      <PointData>
        <DataArray type="Float32" Name="Displacement" NumberOfComponents="3">
           7.22948826e-05     3.22143933e-05     0.00000000e+00    
           7.07358777e-05     3.74313677e-05     0.00000000e+00    
           7.23219855e-05     3.62264473e-05     0.00000000e+00    
           7.10059467e-05     3.33209864e-05     0.00000000e+00    
           3.27786183e-05     3.37605197e-05     0.00000000e+00    
           2.94850506e-05     3.20812178e-05     0.00000000e+00    
           2.68432268e-05     3.08628514e-05     0.00000000e+00    
           3.15440666e-05     3.02390163e-05     0.00000000e+00    
           7.68432292e-05     3.08628514e-05     0.00000000e+00    
           7.94850494e-05     3.20812178e-05     0.00000000e+00    
           8.27786207e-05     3.37605197e-05     0.00000000e+00    
           5.75646336e-05     4.50013758e-05     0.00000000e+00    
           5.67179959e-05     4.92207946e-05     0.00000000e+00    
           5.58284664e-05     5.30848665e-05     0.00000000e+00    
           4.97025430e-05     4.75524612e-05     0.00000000e+00    
           5.82846724e-06     3.08486665e-06     0.00000000e+00    
           6.71799489e-06    -7.79204356e-07     0.00000000e+00    
           7.56463214e-06    -4.99862563e-06     0.00000000e+00    
           6.61247541e-05     4.08965971e-05     0.00000000e+00    
           6.54741234e-05     4.25276376e-05     0.00000000e+00    
           6.48652713e-05     4.44864563e-05     0.00000000e+00    
           5.96692662e-05     4.09631939e-05     0.00000000e+00    
           1.48652689e-05    -5.51354242e-06     0.00000000e+00    
           1.54741228e-05    -7.47236118e-06     0.00000000e+00    
           1.61247517e-05    -9.10340259e-06     0.00000000e+00    
           5.67450661e-05     8.99422230e-06     0.00000000e+00    
           5.41479749e-05     1.59113570e-05     0.00000000e+00    
           5.56988925e-05     1.43350626e-05     0.00000000e+00    
           5.44818431e-05     1.05652280e-05     0.00000000e+00    
           8.52223093e-05     4.02885780e-05     0.00000000e+00    
           8.84901165e-05     4.15145223e-05     0.00000000e+00    
           9.14615594e-05     4.23226265e-05     0.00000000e+00    
           8.62385132e-05     4.83835975e-05     0.00000000e+00    
           4.14615570e-05     4.23226265e-05     0.00000000e+00    
           3.84901141e-05     4.15145223e-05     0.00000000e+00    
           3.52223142e-05     4.02885780e-05     0.00000000e+00    
           4.85342644e-05     3.47921887e-05     0.00000000e+00    
           4.61348245e-05     4.16992116e-05     0.00000000e+00    
           4.80735471e-05     4.03249396e-05     0.00000000e+00    
           4.69420265e-05     3.67337634e-05     0.00000000e+00    
           8.01335846e-05     4.50476909e-05     0.00000000e+00    
           7.74648506e-05     4.56525231e-05     0.00000000e+00    
           7.92733408e-05     4.58066061e-05     0.00000000e+00    
           7.85420634e-05     4.49215222e-05     0.00000000e+00    
           4.15355207e-05     1.76069898e-05     0.00000000e+00    
           3.75001400e-05     1.68458610e-05     0.00000000e+00    
           4.06945474e-05     1.79179642e-05     0.00000000e+00    
           3.85044514e-05     1.70975236e-05     0.00000000e+00    
           1.80332536e-05     1.29290602e-05     0.00000000e+00    
           1.50617652e-05     1.21898875e-05     0.00000000e+00    
           1.26832019e-05     1.17552345e-05     0.00000000e+00    
           1.86548568e-05     6.98352642e-06     0.00000000e+00    
           1.78072678e-05     1.06836078e-05     0.00000000e+00    
           1.53498768e-05     9.04312310e-06     0.00000000e+00    
           6.26832043e-05     1.17552345e-05     0.00000000e+00    
           6.50617658e-05     1.21898875e-05     0.00000000e+00    
           6.80332523e-05     1.29290602e-05     0.00000000e+00    
           3.07888258e-05     2.26619941e-05     0.00000000e+00    
           2.83001264e-05     2.48886081e-05     0.00000000e+00    
           2.99034582e-05     2.41642192e-05     0.00000000e+00    
           2.87021794e-05     2.27697965e-05     0.00000000e+00    
           2.81888933e-05     9.11784173e-06     0.00000000e+00    
           2.36111046e-05     9.64804622e-06     0.00000000e+00    
           2.69930351e-05     9.33325737e-06     0.00000000e+00    
           2.47715252e-05     8.85193913e-06     0.00000000e+00    
           4.69686347e-05     2.15334767e-05     0.00000000e+00    
           4.41794291e-05     2.46049785e-05     0.00000000e+00    
           4.65874327e-05     2.35305870e-05     0.00000000e+00    
           4.51227716e-05     2.19540998e-05     0.00000000e+00    
           7.09441447e-05     2.58997698e-05     0.00000000e+00    
           6.86971034e-05     3.09559327e-05     0.00000000e+00    
           7.06701176e-05     2.74588583e-05     0.00000000e+00    
           6.88720756e-05     2.91107244e-05     0.00000000e+00    
           4.12820409e-05     2.44295370e-05     0.00000000e+00    
           3.79006851e-05     2.72985671e-05     0.00000000e+00    
           3.99704004e-05     2.68355780e-05     0.00000000e+00    
           3.89509441e-05     2.54293973e-05     0.00000000e+00    
           5.79929801e-05     2.12715186e-05     0.00000000e+00    
           5.51130179e-05     2.49164859e-05     0.00000000e+00    
           5.80171218e-05     2.47087319e-05     0.00000000e+00    
           5.62607602e-05     2.25594649e-05     0.00000000e+00    
           4.99999987e-05     4.99999987e-05     0.00000000e+00    
           0.00000000e+00     0.00000000e+00     0.00000000e+00    
           4.99999987e-05     0.00000000e+00     0.00000000e+00    
           9.99999975e-05     4.99999987e-05     0.00000000e+00    
           7.31352557e-05     3.27065063e-05     0.00000000e+00    
           7.39674506e-05     3.33272110e-05     0.00000000e+00    
           7.46133665e-05     3.40115039e-05     0.00000000e+00    
           7.49865285e-05     3.46569395e-05     0.00000000e+00    
           7.50947947e-05     3.53851538e-05     0.00000000e+00    
           7.49726387e-05     3.61474558e-05     0.00000000e+00    
           7.47124068e-05     3.68057299e-05     0.00000000e+00    
           7.42367847e-05     3.72371942e-05     0.00000000e+00    
           7.35086942e-05     3.75152194e-05     0.00000000e+00    
           7.26488215e-05     3.76375283e-05     0.00000000e+00    
           7.17159710e-05     3.76252574e-05     0.00000000e+00    
           6.97627183e-05     3.70093367e-05     0.00000000e+00    
           6.88802611e-05     3.64451807e-05     0.00000000e+00    
           6.81903257e-05     3.57952449e-05     0.00000000e+00    
           6.77753633e-05     3.51677372e-05     0.00000000e+00    
           6.77348653e-05     3.45257722e-05     0.00000000e+00    
           6.80252633e-05     3.38898863e-05     0.00000000e+00    
           6.85180130e-05     3.32267373e-05     0.00000000e+00    
           6.92695539e-05     3.25085784e-05     0.00000000e+00    
           7.03118567e-05     3.17650447e-05     0.00000000e+00    
           7.08924563e-05     3.17390550e-05     0.00000000e+00    
           7.14714261e-05     3.19094906e-05     0.00000000e+00    
           7.16015493e-05     3.48097346e-05     0.00000000e+00    
           3.19734354e-05     3.33785392e-05     0.00000000e+00    
           3.09415009e-05     3.28419774e-05     0.00000000e+00    
           2.79692213e-05     3.13906930e-05     0.00000000e+00    
           2.70583932e-05     3.10328796e-05     0.00000000e+00    
           2.73174173e-05     3.07223854e-05     0.00000000e+00    
           2.77208528e-05     3.05130034e-05     0.00000000e+00    
           2.80799359e-05     3.02121771e-05     0.00000000e+00    
           2.85572532e-05     3.00027805e-05     0.00000000e+00    
           2.91247179e-05     2.99092026e-05     0.00000000e+00    
           2.98527975e-05     2.98853756e-05     0.00000000e+00    
           3.06498259e-05     3.00104130e-05     0.00000000e+00    
           3.23476670e-05     3.05258036e-05     0.00000000e+00    
           3.28811730e-05     3.07849405e-05     0.00000000e+00    
           3.31883493e-05     3.11042313e-05     0.00000000e+00    
           3.33477547e-05     3.15033612e-05     0.00000000e+00    
           3.34402175e-05     3.19912178e-05     0.00000000e+00    
           3.33869757e-05     3.25126202e-05     0.00000000e+00    
           3.31510528e-05     3.30830044e-05     0.00000000e+00    
           7.70583938e-05     3.10328796e-05     0.00000000e+00    
           7.79692200e-05     3.13906930e-05     0.00000000e+00    
           8.09414996e-05     3.28419774e-05     0.00000000e+00    
           8.19734341e-05     3.33785392e-05     0.00000000e+00    
           8.22165312e-05     3.43118008e-05     0.00000000e+00    
           8.15346357e-05     3.44460968e-05     0.00000000e+00    
           8.06946700e-05     3.42665735e-05     0.00000000e+00    
           7.97104367e-05     3.39439357e-05     0.00000000e+00    
           7.86025557e-05     3.33656499e-05     0.00000000e+00    
           7.73674037e-05     3.24625871e-05     0.00000000e+00    
           7.60823314e-05     3.11692893e-05     0.00000000e+00    
           7.62990676e-05     3.07570335e-05     0.00000000e+00    
           5.73860925e-05     4.60992778e-05     0.00000000e+00    
           5.71175769e-05     4.74787812e-05     0.00000000e+00    
           5.63157155e-05     5.09103702e-05     0.00000000e+00    
           5.60326444e-05     5.21405927e-05     0.00000000e+00    
           5.43517745e-05     5.29165627e-05     0.00000000e+00    
           5.29235040e-05     5.25091709e-05     0.00000000e+00    
           5.16830733e-05     5.19752248e-05     0.00000000e+00    
           5.07643199e-05     5.13252562e-05     0.00000000e+00    
           5.01395880e-05     5.05030694e-05     0.00000000e+00    
           4.97411165e-05     4.95597233e-05     0.00000000e+00    
           4.95852437e-05     4.85532582e-05     0.00000000e+00    
           5.01396680e-05     4.65002959e-05     0.00000000e+00    
           5.07778459e-05     4.55288500e-05     0.00000000e+00    
           5.15956053e-05     4.48162864e-05     0.00000000e+00    
           5.26366639e-05     4.43586287e-05     0.00000000e+00    
           5.38759195e-05     4.41260599e-05     0.00000000e+00    
           5.51332996e-05     4.41306511e-05     0.00000000e+00    
           5.63753456e-05     4.43948702e-05     0.00000000e+00    
           6.03264516e-06     2.14059355e-06     0.00000000e+00    
           6.31571402e-06     9.10369010e-07     0.00000000e+00    
           7.11757821e-06    -2.52121868e-06     0.00000000e+00    
           7.38609197e-06    -3.90072046e-06     0.00000000e+00    
           8.67892140e-06    -4.14836313e-06     0.00000000e+00    
           9.60554826e-06    -3.11422036e-06     0.00000000e+00    
           1.02123768e-05    -2.05521633e-06     0.00000000e+00    
           1.04251067e-05    -1.01279988e-06     0.00000000e+00    
           1.02846061e-05     1.15893421e-07     0.00000000e+00    
           9.90184799e-06     1.22256040e-06     0.00000000e+00    
           9.26228131e-06     2.10110829e-06     0.00000000e+00    
           8.33493050e-06     2.63740640e-06     0.00000000e+00    
           7.14418366e-06     2.96575217e-06     0.00000000e+00    
           6.58551362e-05     4.15594950e-05     0.00000000e+00    
           6.51214941e-05     4.36200498e-05     0.00000000e+00    
           6.39562204e-05     4.46665181e-05     0.00000000e+00    
           6.29874121e-05     4.46645172e-05     0.00000000e+00    
           6.20132705e-05     4.44677244e-05     0.00000000e+00    
           6.10292191e-05     4.40075128e-05     0.00000000e+00    
           5.99583182e-05     4.31761764e-05     0.00000000e+00    
           5.90895106e-05     4.21718032e-05     0.00000000e+00    
           5.88479925e-05     4.14978022e-05     0.00000000e+00    
           5.91453245e-05     4.12195077e-05     0.00000000e+00    
           6.02716827e-05     4.06140025e-05     0.00000000e+00    
           6.09948402e-05     4.02725855e-05     0.00000000e+00    
           6.18820486e-05     4.00099198e-05     0.00000000e+00    
           6.28520938e-05     3.98337215e-05     0.00000000e+00    
           6.37668418e-05     3.97461736e-05     0.00000000e+00    
           6.45246473e-05     3.97863259e-05     0.00000000e+00    
           6.51103182e-05     3.99685014e-05     0.00000000e+00    
           6.56382181e-05     4.03606391e-05     0.00000000e+00    
           1.51214963e-05    -6.37995163e-06     0.00000000e+00    
           1.58551356e-05    -8.44050464e-06     0.00000000e+00    
           1.64840712e-05    -8.45673185e-06     0.00000000e+00    
           1.66595819e-05    -7.76830530e-06     0.00000000e+00    
           1.66020891e-05    -7.09215010e-06     0.00000000e+00    
           1.62625547e-05    -6.44155580e-06     0.00000000e+00    
           1.56826100e-05    -5.89790898e-06     0.00000000e+00    
           5.81558197e-05     9.52614027e-06     0.00000000e+00    
           5.87619616e-05     1.00389043e-05     0.00000000e+00    
           5.89327137e-05     1.05485169e-05     0.00000000e+00    
           5.90251184e-05     1.13370652e-05     0.00000000e+00    
           5.89878218e-05     1.23361597e-05     0.00000000e+00    
           5.87495670e-05     1.34591555e-05     0.00000000e+00    
           5.82697685e-05     1.47093797e-05     0.00000000e+00    
           5.76490929e-05     1.56677288e-05     0.00000000e+00    
           5.70195225e-05     1.60862510e-05     0.00000000e+00    
           5.61982197e-05     1.61966364e-05     0.00000000e+00    
           5.51997000e-05     1.61696644e-05     0.00000000e+00    
           5.30828875e-05     1.54738063e-05     0.00000000e+00    
           5.21158618e-05     1.48178733e-05     0.00000000e+00    
           5.13108316e-05     1.40111870e-05     0.00000000e+00    
           5.07579134e-05     1.30563885e-05     0.00000000e+00    
           5.05081480e-05     1.19924171e-05     0.00000000e+00    
           5.05332719e-05     1.08841214e-05     0.00000000e+00    
           5.08584126e-05     9.94114544e-06     0.00000000e+00    
           5.15154134e-05     9.24854157e-06     0.00000000e+00    
           5.24726602e-05     8.81958840e-06     0.00000000e+00    
           5.36673579e-05     8.59724514e-06     0.00000000e+00    
           5.50954755e-05     8.62301567e-06     0.00000000e+00    
           5.51499797e-05     1.23957898e-05     0.00000000e+00    
           8.66320042e-05     4.08647211e-05     0.00000000e+00    
           9.02534885e-05     4.20343204e-05     0.00000000e+00    
           9.19776721e-05     4.31709850e-05     0.00000000e+00    
           9.22820909e-05     4.42118071e-05     0.00000000e+00    
           9.23711632e-05     4.54203182e-05     0.00000000e+00    
           9.21899627e-05     4.65831035e-05     0.00000000e+00    
           9.16979989e-05     4.75271045e-05     0.00000000e+00    
           9.08276343e-05     4.81574280e-05     0.00000000e+00    
           8.97146965e-05     4.84615375e-05     0.00000000e+00    
           8.84940164e-05     4.86088538e-05     0.00000000e+00    
           8.72757082e-05     4.85857636e-05     0.00000000e+00    
           8.52876765e-05     4.79455339e-05     0.00000000e+00    
           8.43131347e-05     4.72892789e-05     0.00000000e+00    
           8.34793100e-05     4.65016601e-05     0.00000000e+00    
           8.29181954e-05     4.57052338e-05     0.00000000e+00    
           8.26435353e-05     4.48357459e-05     0.00000000e+00    
           8.26467513e-05     4.38516836e-05     0.00000000e+00    
           8.29052660e-05     4.27394916e-05     0.00000000e+00    
           8.34179009e-05     4.15218819e-05     0.00000000e+00    
           8.42128211e-05     4.06574181e-05     0.00000000e+00    
           4.02534897e-05     4.20343204e-05     0.00000000e+00    
           3.66320019e-05     4.08647211e-05     0.00000000e+00    
           3.63226609e-05     4.02579208e-05     0.00000000e+00    
           3.75150594e-05     4.03936101e-05     0.00000000e+00    
           3.87342006e-05     4.07190237e-05     0.00000000e+00    
           3.98534175e-05     4.12182380e-05     0.00000000e+00    
           4.07797233e-05     4.17423944e-05     0.00000000e+00    
           4.97791480e-05     3.52611569e-05     0.00000000e+00    
           5.10605350e-05     3.60918093e-05     0.00000000e+00    
           5.22752125e-05     3.71593887e-05     0.00000000e+00    
           5.29186800e-05     3.81547798e-05     0.00000000e+00    
           5.29371973e-05     3.87634573e-05     0.00000000e+00    
           5.25522846e-05     3.93304290e-05     0.00000000e+00    
           5.20936192e-05     4.00308927e-05     0.00000000e+00    
           5.15109023e-05     4.08564410e-05     0.00000000e+00    
           5.07562654e-05     4.15283939e-05     0.00000000e+00    
           4.98458430e-05     4.19642638e-05     0.00000000e+00    
           4.86773315e-05     4.21060831e-05     0.00000000e+00    
           4.74259978e-05     4.19723547e-05     0.00000000e+00    
           4.49568543e-05     4.12511290e-05     0.00000000e+00    
           4.41548618e-05     4.07848238e-05     0.00000000e+00    
           4.36520641e-05     4.02922342e-05     0.00000000e+00    
           4.33255227e-05     3.95673342e-05     0.00000000e+00    
           4.31579465e-05     3.86817737e-05     0.00000000e+00    
           4.31781846e-05     3.76550342e-05     0.00000000e+00    
           4.33515524e-05     3.66295608e-05     0.00000000e+00    
           4.36955270e-05     3.58619982e-05     0.00000000e+00    
           4.43110875e-05     3.53414689e-05     0.00000000e+00    
           4.51497763e-05     3.49626316e-05     0.00000000e+00    
           4.61685340e-05     3.47142486e-05     0.00000000e+00    
           4.73235705e-05     3.46326960e-05     0.00000000e+00    
           4.76104797e-05     3.86372849e-05     0.00000000e+00    
           8.02666254e-05     4.52992062e-05     0.00000000e+00    
           8.03747025e-05     4.55992886e-05     0.00000000e+00    
           8.04092415e-05     4.58606482e-05     0.00000000e+00    
           8.03114963e-05     4.60395713e-05     0.00000000e+00    
           8.00506969e-05     4.61515920e-05     0.00000000e+00    
           7.96788081e-05     4.62068783e-05     0.00000000e+00    
           7.92088904e-05     4.61915515e-05     0.00000000e+00    
           7.86836536e-05     4.60907468e-05     0.00000000e+00    
           7.81165872e-05     4.59462499e-05     0.00000000e+00    
           7.76642046e-05     4.57623755e-05     0.00000000e+00    
           7.74788132e-05     4.55784611e-05     0.00000000e+00    
           7.75154986e-05     4.54242982e-05     0.00000000e+00    
           7.75705266e-05     4.52219028e-05     0.00000000e+00    
           7.76607776e-05     4.49647050e-05     0.00000000e+00    
           7.78081376e-05     4.46304221e-05     0.00000000e+00    
           7.80172631e-05     4.42699202e-05     0.00000000e+00    
           7.83373980e-05     4.41243392e-05     0.00000000e+00    
           7.88247198e-05     4.42500386e-05     0.00000000e+00    
           7.93027139e-05     4.45429214e-05     0.00000000e+00    
           7.97919638e-05     4.48297651e-05     0.00000000e+00    
           7.89077385e-05     4.53967077e-05     0.00000000e+00    
           4.20960241e-05     1.79285853e-05     0.00000000e+00    
           4.21009208e-05     1.79615399e-05     0.00000000e+00    