<?xml version="1.0"?>
<VTKFile type="UnstructuredGrid" version="0.1">
  <UnstructuredGrid>
    <Piece NumberOfPoints="1636" NumberOfCells="3138">
      <Points>
        <DataArray type="Float32" NumberOfComponents="3">
           5.21582007e-01     5.11657000e-01     0.00000000e+00    
           5.07319987e-01     5.11657000e-01     0.00000000e+00    
           5.11602998e-01     5.13803005e-01     0.00000000e+00    
           5.17298996e-01     5.09510994e-01     0.00000000e+00    
           4.65243995e-01     5.17907977e-01     0.00000000e+00    
           4.65243995e-01     5.11415005e-01     0.00000000e+00    
           4.65243995e-01     5.04921973e-01     0.00000000e+00    
           4.75246996e-01     5.11415005e-01     0.00000000e+00    
           5.33852994e-01     5.04921973e-01     0.00000000e+00    
           5.33852994e-01     5.11415005e-01     0.00000000e+00    
           5.33852994e-01     5.17907977e-01     0.00000000e+00    
           4.83779997e-01     5.34618974e-01     0.00000000e+00    
           4.76381987e-01     5.34618974e-01     0.00000000e+00    
           4.68984991e-01     5.34618974e-01     0.00000000e+00    
           4.76381987e-01     5.23841977e-01     0.00000000e+00    
           4.68984991e-01     4.66010004e-01     0.00000000e+00    
           4.76381987e-01     4.66010004e-01     0.00000000e+00    
           4.83779997e-01     4.66010004e-01     0.00000000e+00    
           4.99920011e-01     5.34618974e-01     0.00000000e+00    
           4.94562000e-01     5.34618974e-01     0.00000000e+00    
           4.89203990e-01     5.34618974e-01     0.00000000e+00    
           4.94562000e-01     5.22280991e-01     0.00000000e+00    
           4.89203990e-01     4.66010004e-01     0.00000000e+00    
           4.94562000e-01     4.66010004e-01     0.00000000e+00    
           4.99920011e-01     4.66010004e-01     0.00000000e+00    
           5.32517016e-01     4.74112004e-01     0.00000000e+00    
           5.17961025e-01     4.74112004e-01     0.00000000e+00    
           5.22153020e-01     4.76040006e-01     0.00000000e+00    
           5.28325021e-01     4.72182989e-01     0.00000000e+00    
           5.33852994e-01     5.19801974e-01     0.00000000e+00    
           5.33852994e-01     5.24702013e-01     0.00000000e+00    
           5.33852994e-01     5.29603004e-01     0.00000000e+00    
           5.19536972e-01     5.24702013e-01     0.00000000e+00    
           4.65243995e-01     5.29603004e-01     0.00000000e+00    
           4.65243995e-01     5.24702013e-01     0.00000000e+00    
           4.65243995e-01     5.19801974e-01     0.00000000e+00    
           4.92487997e-01     5.17117977e-01     0.00000000e+00    
           4.76904988e-01     5.17117977e-01     0.00000000e+00    
           4.81225997e-01     5.18886983e-01     0.00000000e+00    
           4.88168001e-01     5.15349984e-01     0.00000000e+00    
           5.17996013e-01     5.27033985e-01     0.00000000e+00    
           5.04473984e-01     5.27033985e-01     0.00000000e+00    
           5.10882020e-01     5.30395985e-01     0.00000000e+00    
           5.11587977e-01     5.23671985e-01     0.00000000e+00    
           5.08446991e-01     4.83435005e-01     0.00000000e+00    
           4.94414002e-01     4.83435005e-01     0.00000000e+00    
           5.03341019e-01     4.86377001e-01     0.00000000e+00    
           4.99518991e-01     4.80491996e-01     0.00000000e+00    
           4.65243995e-01     4.83101994e-01     0.00000000e+00    
           4.65243995e-01     4.78758007e-01     0.00000000e+00    
           4.65243995e-01     4.74415004e-01     0.00000000e+00    
           4.78336990e-01     4.78758007e-01     0.00000000e+00    
           4.69897985e-01     4.81519997e-01     0.00000000e+00    
           4.72241998e-01     4.75997001e-01     0.00000000e+00    
           5.33852994e-01     4.74415004e-01     0.00000000e+00    
           5.33852994e-01     4.78758007e-01     0.00000000e+00    
           5.33852994e-01     4.83101994e-01     0.00000000e+00    
           4.80668008e-01     4.95810986e-01     0.00000000e+00    
           4.66084987e-01     4.95810986e-01     0.00000000e+00    
           4.72070009e-01     4.99215007e-01     0.00000000e+00    
           4.74682987e-01     4.92406994e-01     0.00000000e+00    
           4.93930012e-01     4.79214013e-01     0.00000000e+00    
           4.78967011e-01     4.79214013e-01     0.00000000e+00    
           4.87289995e-01     4.82858986e-01     0.00000000e+00    
           4.85606998e-01     4.75569010e-01     0.00000000e+00    
           5.09284973e-01     4.97658014e-01     0.00000000e+00    
           4.95503992e-01     4.97658014e-01     0.00000000e+00    
           5.00939012e-01     5.00781000e-01     0.00000000e+00    
           5.03850996e-01     4.94536012e-01     0.00000000e+00    
           5.33011973e-01     5.01751006e-01     0.00000000e+00    
           5.17829001e-01     5.01751006e-01     0.00000000e+00    
           5.29196024e-01     5.02147973e-01     0.00000000e+00    
           5.21646023e-01     5.01353979e-01     0.00000000e+00    
           4.95451003e-01     5.00564992e-01     0.00000000e+00    
           4.80922014e-01     5.00564992e-01     0.00000000e+00    
           4.86593992e-01     5.03829002e-01     0.00000000e+00    
           4.89778996e-01     4.97299999e-01     0.00000000e+00    
           5.25367022e-01     4.88312006e-01     0.00000000e+00    
           5.09521008e-01     4.88312006e-01     0.00000000e+00    
           5.15170991e-01     4.91557002e-01     0.00000000e+00    
           5.19716024e-01     4.85067010e-01     0.00000000e+00    
           4.65243995e-01     5.34618974e-01     0.00000000e+00    
           4.65243995e-01     4.66010004e-01     0.00000000e+00    
           5.33852994e-01     4.66010004e-01     0.00000000e+00    
           5.33852994e-01     5.34618974e-01     0.00000000e+00    
           5.21338999e-01     5.13502657e-01     0.00000000e+00    
           5.20626605e-01     5.15222490e-01     0.00000000e+00    
           5.19493401e-01     5.16699374e-01     0.00000000e+00    
           5.18016517e-01     5.17832637e-01     0.00000000e+00    
           5.16296625e-01     5.18545032e-01     0.00000000e+00    
           5.14451027e-01     5.18787980e-01     0.00000000e+00    
           5.12605369e-01     5.18545032e-01     0.00000000e+00    
           5.10885477e-01     5.17832637e-01     0.00000000e+00    
           5.09408593e-01     5.16699374e-01     0.00000000e+00    
           5.08275390e-01     5.15222490e-01     0.00000000e+00    
           5.07562995e-01     5.13502657e-01     0.00000000e+00    
           5.07562995e-01     5.09811342e-01     0.00000000e+00    
           5.08275390e-01     5.08091509e-01     0.00000000e+00    
           5.09408593e-01     5.06614625e-01     0.00000000e+00    
           5.10885477e-01     5.05481362e-01     0.00000000e+00    
           5.12605369e-01     5.04768968e-01     0.00000000e+00    
           5.14451027e-01     5.04526019e-01     0.00000000e+00    
           5.16296625e-01     5.04768968e-01     0.00000000e+00    
           5.18016517e-01     5.05481362e-01     0.00000000e+00    
           5.19493401e-01     5.06614625e-01     0.00000000e+00    
           5.20626605e-01     5.08091509e-01     0.00000000e+00    
           5.21338999e-01     5.09811342e-01     0.00000000e+00    
           5.14451027e-01     5.11657000e-01     0.00000000e+00    
           4.65243995e-01     5.16254604e-01     0.00000000e+00    
           4.65243995e-01     5.14134228e-01     0.00000000e+00    
           4.65243995e-01     5.08695781e-01     0.00000000e+00    
           4.65243995e-01     5.06575406e-01     0.00000000e+00    
           4.66931671e-01     5.04409373e-01     0.00000000e+00    
           4.68693614e-01     5.04328012e-01     0.00000000e+00    
           4.70421344e-01     5.04682958e-01     0.00000000e+00    
           4.72008497e-01     5.05452335e-01     0.00000000e+00    
           4.73357379e-01     5.06588817e-01     0.00000000e+00    
           4.74384934e-01     5.08022368e-01     0.00000000e+00    
           4.75027919e-01     5.09664834e-01     0.00000000e+00    
           4.75028187e-01     5.13165236e-01     0.00000000e+00    
           4.74385172e-01     5.14807761e-01     0.00000000e+00    
           4.73357558e-01     5.16241372e-01     0.00000000e+00    
           4.72008646e-01     5.17377913e-01     0.00000000e+00    
           4.70421433e-01     5.18147290e-01     0.00000000e+00    
           4.68693614e-01     5.18502235e-01     0.00000000e+00    
           4.66931641e-01     5.18420875e-01     0.00000000e+00    
           5.33852994e-01     5.06575406e-01     0.00000000e+00    
           5.33852994e-01     5.08695781e-01     0.00000000e+00    
           5.33852994e-01     5.14134228e-01     0.00000000e+00    
           5.33852994e-01     5.16254604e-01     0.00000000e+00    
           5.32303810e-01     5.16964078e-01     0.00000000e+00    
           5.31043947e-01     5.15658796e-01     0.00000000e+00    
           5.30155540e-01     5.14077127e-01     0.00000000e+00    
           5.29696345e-01     5.12322068e-01     0.00000000e+00    
           5.29696345e-01     5.10507941e-01     0.00000000e+00    
           5.30155540e-01     5.08752882e-01     0.00000000e+00    
           5.31043947e-01     5.07171214e-01     0.00000000e+00    
           5.32303810e-01     5.05865932e-01     0.00000000e+00    
           4.81947482e-01     5.34618974e-01     0.00000000e+00    
           4.79541332e-01     5.34618974e-01     0.00000000e+00    
           4.73223150e-01     5.34618974e-01     0.00000000e+00    
           4.70817327e-01     5.34618974e-01     0.00000000e+00    
           4.68517244e-01     5.32760799e-01     0.00000000e+00    
[...]
      <PointData>
        <DataArray type="Float32" Name="Displacement" NumberOfComponents="3">
           5.78359060e-04     2.57715146e-04     0.00000000e+00    
           5.65887021e-04     2.99450941e-04     0.00000000e+00    
           5.78575884e-04     2.89811578e-04     0.00000000e+00    
           5.68047573e-04     2.66567891e-04     0.00000000e+00    
           2.62228947e-04     2.70084158e-04     0.00000000e+00    
           2.35880405e-04     2.56649742e-04     0.00000000e+00    
           2.14745814e-04     2.46902811e-04     0.00000000e+00    
           2.52352533e-04     2.41912130e-04     0.00000000e+00    
           6.14745833e-04     2.46902811e-04     0.00000000e+00    
           6.35880395e-04     2.56649742e-04     0.00000000e+00    
           6.62228966e-04     2.70084158e-04     0.00000000e+00    
           4.60517069e-04     3.60011007e-04     0.00000000e+00    
           4.53743967e-04     3.93766357e-04     0.00000000e+00    
           4.46627731e-04     4.24678932e-04     0.00000000e+00    
           3.97620344e-04     3.80419689e-04     0.00000000e+00    
           4.66277379e-05     2.46789332e-05     0.00000000e+00    
           5.37439591e-05    -6.23363485e-06     0.00000000e+00    
           6.05170571e-05    -3.99890050e-05     0.00000000e+00    
           5.28998033e-04     3.27172776e-04     0.00000000e+00    
           5.23792987e-04     3.40221100e-04     0.00000000e+00    
           5.18922170e-04     3.55891651e-04     0.00000000e+00    
           4.77354130e-04     3.27705551e-04     0.00000000e+00    
           1.18922151e-04    -4.41083394e-05     0.00000000e+00    
           1.23792983e-04    -5.97788894e-05     0.00000000e+00    
           1.28998014e-04    -7.28272207e-05     0.00000000e+00    
           4.53960529e-04     7.19537784e-05     0.00000000e+00    
           4.33183799e-04     1.27290856e-04     0.00000000e+00    
           4.45591140e-04     1.14680501e-04     0.00000000e+00    
           4.35854745e-04     8.45218237e-05     0.00000000e+00    
           6.81778474e-04     3.22308624e-04     0.00000000e+00    
           7.07920932e-04     3.32116178e-04     0.00000000e+00    
           7.31692475e-04     3.38581012e-04     0.00000000e+00    
           6.89908105e-04     3.87068780e-04     0.00000000e+00    
           3.31692456e-04     3.38581012e-04     0.00000000e+00    
           3.07920913e-04     3.32116178e-04     0.00000000e+00    
           2.81778513e-04     3.22308624e-04     0.00000000e+00    
           3.88274115e-04     2.78337509e-04     0.00000000e+00    
           3.69078596e-04     3.33593693e-04     0.00000000e+00    
           3.84588377e-04     3.22599517e-04     0.00000000e+00    
           3.75536212e-04     2.93870107e-04     0.00000000e+00    
           6.41068676e-04     3.60381528e-04     0.00000000e+00    
           6.19718805e-04     3.65220185e-04     0.00000000e+00    
           6.34186727e-04     3.66452849e-04     0.00000000e+00    
           6.28336507e-04     3.59372178e-04     0.00000000e+00    
           3.32284166e-04     1.40855918e-04     0.00000000e+00    
           3.00001120e-04     1.34766888e-04     0.00000000e+00    
           3.25556379e-04     1.43343714e-04     0.00000000e+00    
           3.08035611e-04     1.36780189e-04     0.00000000e+00    
           1.44266029e-04     1.03432481e-04     0.00000000e+00    
           1.20494122e-04     9.75190997e-05     0.00000000e+00    
           1.01465615e-04     9.40418759e-05     0.00000000e+00    
           1.49238855e-04     5.58682113e-05     0.00000000e+00    
           1.42458142e-04     8.54688624e-05     0.00000000e+00    
           1.22799014e-04     7.23449848e-05     0.00000000e+00    
           5.01465634e-04     9.40418759e-05     0.00000000e+00    
           5.20494126e-04     9.75190997e-05     0.00000000e+00    
           5.44266019e-04     1.03432481e-04     0.00000000e+00    
           2.46310607e-04     1.81295953e-04     0.00000000e+00    
           2.26401011e-04     1.99108865e-04     0.00000000e+00    
           2.39227666e-04     1.93313754e-04     0.00000000e+00    
           2.29617435e-04     1.82158372e-04     0.00000000e+00    
           2.25511147e-04     7.29427338e-05     0.00000000e+00    
           1.88888836e-04     7.71843697e-05     0.00000000e+00    
           2.15944281e-04     7.46660589e-05     0.00000000e+00    
           1.98172202e-04     7.08155130e-05     0.00000000e+00    
           3.75749078e-04     1.72267813e-04     0.00000000e+00    
           3.53435433e-04     1.96839828e-04     0.00000000e+00    
           3.72699462e-04     1.88244696e-04     0.00000000e+00    
           3.60982172e-04     1.75632798e-04     0.00000000e+00    
           5.67553157e-04     2.07198158e-04     0.00000000e+00    
           5.49576827e-04     2.47647462e-04     0.00000000e+00    
           5.65360941e-04     2.19670866e-04     0.00000000e+00    
           5.50976605e-04     2.32885795e-04     0.00000000e+00    
           3.30256327e-04     1.95436296e-04     0.00000000e+00    
           3.03205481e-04     2.18388537e-04     0.00000000e+00    
           3.19763203e-04     2.14684624e-04     0.00000000e+00    
           3.11607553e-04     2.03435178e-04     0.00000000e+00    
           4.63943841e-04     1.70172149e-04     0.00000000e+00    
           4.40904143e-04     1.99331887e-04     0.00000000e+00    
           4.64136974e-04     1.97669855e-04     0.00000000e+00    
           4.50086081e-04     1.80475719e-04     0.00000000e+00    
           3.99999990e-04     3.99999990e-04     0.00000000e+00    
           0.00000000e+00     0.00000000e+00     0.00000000e+00    
           3.99999990e-04     0.00000000e+00     0.00000000e+00    
           7.99999980e-04     3.99999990e-04     0.00000000e+00    
           5.85082045e-04     2.61652051e-04     0.00000000e+00    
           5.91739605e-04     2.66617688e-04     0.00000000e+00    
           5.96906932e-04     2.72092031e-04     0.00000000e+00    
           5.99892228e-04     2.77255516e-04     0.00000000e+00    
           6.00758358e-04     2.83081230e-04     0.00000000e+00    
           5.99781109e-04     2.89179647e-04     0.00000000e+00    
           5.97699254e-04     2.94445839e-04     0.00000000e+00    
           5.93894278e-04     2.97897554e-04     0.00000000e+00    
           5.88069553e-04     3.00121756e-04     0.00000000e+00    
           5.81190572e-04     3.01100226e-04     0.00000000e+00    
           5.73727768e-04     3.01002059e-04     0.00000000e+00    
           5.58101747e-04     2.96074693e-04     0.00000000e+00    
           5.51042089e-04     2.91561446e-04     0.00000000e+00    
           5.45522606e-04     2.86361959e-04     0.00000000e+00    
           5.42202906e-04     2.81341898e-04     0.00000000e+00    
           5.41878922e-04     2.76206178e-04     0.00000000e+00    
           5.44202107e-04     2.71119090e-04     0.00000000e+00    
           5.48144104e-04     2.65813898e-04     0.00000000e+00    
           5.54156431e-04     2.60068628e-04     0.00000000e+00    
           5.62494854e-04     2.54120358e-04     0.00000000e+00    
           5.67139650e-04     2.53912440e-04     0.00000000e+00    
           5.71771408e-04     2.55275925e-04     0.00000000e+00    
           5.72812394e-04     2.78477877e-04     0.00000000e+00    
           2.55787483e-04     2.67028314e-04     0.00000000e+00    
           2.47532007e-04     2.62735819e-04     0.00000000e+00    
           2.23753770e-04     2.51125544e-04     0.00000000e+00    
           2.16467146e-04     2.48263037e-04     0.00000000e+00    
           2.18539339e-04     2.45779083e-04     0.00000000e+00    
           2.21766823e-04     2.44104027e-04     0.00000000e+00    
           2.24639487e-04     2.41697417e-04     0.00000000e+00    
           2.28458026e-04     2.40022244e-04     0.00000000e+00    
           2.32997743e-04     2.39273621e-04     0.00000000e+00    
           2.38822380e-04     2.39083005e-04     0.00000000e+00    
           2.45198607e-04     2.40083304e-04     0.00000000e+00    
           2.58781336e-04     2.44206429e-04     0.00000000e+00    
           2.63049384e-04     2.46279524e-04     0.00000000e+00    
           2.65506795e-04     2.48833850e-04     0.00000000e+00    
           2.66782037e-04     2.52026890e-04     0.00000000e+00    
           2.67521740e-04     2.55929743e-04     0.00000000e+00    
           2.67095806e-04     2.60100962e-04     0.00000000e+00    
           2.65208422e-04     2.64664035e-04     0.00000000e+00    
           6.16467150e-04     2.48263037e-04     0.00000000e+00    
           6.23753760e-04     2.51125544e-04     0.00000000e+00    
           6.47531997e-04     2.62735819e-04     0.00000000e+00    
           6.55787473e-04     2.67028314e-04     0.00000000e+00    
           6.57732249e-04     2.74494407e-04     0.00000000e+00    
           6.52277085e-04     2.75568775e-04     0.00000000e+00    
           6.45557360e-04     2.74132588e-04     0.00000000e+00    
           6.37683494e-04     2.71551486e-04     0.00000000e+00    
           6.28820446e-04     2.66925199e-04     0.00000000e+00    
           6.18939230e-04     2.59700697e-04     0.00000000e+00    
           6.08658651e-04     2.49354314e-04     0.00000000e+00    
           6.10392541e-04     2.46056268e-04     0.00000000e+00    
           4.59088740e-04     3.68794223e-04     0.00000000e+00    
           4.56940616e-04     3.79830250e-04     0.00000000e+00    
           4.50525724e-04     4.07282962e-04     0.00000000e+00    
           4.48261155e-04     4.17124742e-04     0.00000000e+00    
           4.34814196e-04     4.23332502e-04     0.00000000e+00    
           4.23388032e-04     4.20073367e-04     0.00000000e+00    
           4.13464586e-04     4.15801798e-04     0.00000000e+00    
           4.06114559e-04     4.10602050e-04     0.00000000e+00    
           4.01116704e-04     4.04024555e-04     0.00000000e+00    
           3.97928932e-04     3.96477786e-04     0.00000000e+00    
           3.96681949e-04     3.88426066e-04     0.00000000e+00    
           4.01117344e-04     3.72002367e-04     0.00000000e+00    
           4.06222767e-04     3.64230800e-04     0.00000000e+00    
           4.12764843e-04     3.58530291e-04     0.00000000e+00    
           4.21093311e-04     3.54869029e-04     0.00000000e+00    
           4.31007356e-04     3.53008480e-04     0.00000000e+00    
           4.41066397e-04     3.53045209e-04     0.00000000e+00    
           4.51002765e-04     3.55158962e-04     0.00000000e+00    
           4.82611613e-05     1.71247484e-05     0.00000000e+00    
           5.05257121e-05     7.28295208e-06     0.00000000e+00    
           5.69406257e-05    -2.01697494e-05     0.00000000e+00    
           5.90887357e-05    -3.12057637e-05     0.00000000e+00    
           6.94313712e-05    -3.31869051e-05     0.00000000e+00    
           7.68443861e-05    -2.49137629e-05     0.00000000e+00    
           8.16990141e-05    -1.64417306e-05     0.00000000e+00    
           8.34008533e-05    -8.10239908e-06     0.00000000e+00    
           8.22768488e-05     9.27147369e-07     0.00000000e+00    
           7.92147839e-05     9.78048320e-06     0.00000000e+00    
           7.40982505e-05     1.68088663e-05     0.00000000e+00    
           6.66794440e-05     2.10992512e-05     0.00000000e+00    
           5.71534692e-05     2.37260174e-05     0.00000000e+00    
           5.26841090e-04     3.32475960e-04     0.00000000e+00    
           5.20971953e-04     3.48960399e-04     0.00000000e+00    
           5.11649763e-04     3.57332145e-04     0.00000000e+00    
           5.03899297e-04     3.57316138e-04     0.00000000e+00    
           4.96106164e-04     3.55741795e-04     0.00000000e+00    
           4.88233753e-04     3.52060102e-04     0.00000000e+00    
           4.79666545e-04     3.45409411e-04     0.00000000e+00    
           4.72716085e-04     3.37374426e-04     0.00000000e+00    
           4.70783940e-04     3.31982417e-04     0.00000000e+00    
           4.73162596e-04     3.29756062e-04     0.00000000e+00    
           4.82173462e-04     3.24912020e-04     0.00000000e+00    
           4.87958721e-04     3.22180684e-04     0.00000000e+00    
           4.95056389e-04     3.20079358e-04     0.00000000e+00    
           5.02816751e-04     3.18669772e-04     0.00000000e+00    
           5.10134734e-04     3.17969389e-04     0.00000000e+00    
           5.16197179e-04     3.18290608e-04     0.00000000e+00    
           5.20882546e-04     3.19748011e-04     0.00000000e+00    
           5.25105745e-04     3.22885113e-04     0.00000000e+00    
           1.20971970e-04    -5.10396130e-05     0.00000000e+00    
           1.26841085e-04    -6.75240371e-05     0.00000000e+00    
           1.31872570e-04    -6.76538548e-05     0.00000000e+00    
           1.33276655e-04    -6.21464424e-05     0.00000000e+00    
           1.32816713e-04    -5.67372008e-05     0.00000000e+00    
           1.30100438e-04    -5.15324464e-05     0.00000000e+00    
           1.25460880e-04    -4.71832718e-05     0.00000000e+00    
           4.65246558e-04     7.62091222e-05     0.00000000e+00    
           4.70095692e-04     8.03112343e-05     0.00000000e+00    
           4.71461710e-04     8.43881353e-05     0.00000000e+00    
           4.72200947e-04     9.06965215e-05     0.00000000e+00    
           4.71902575e-04     9.86892774e-05     0.00000000e+00    
           4.69996536e-04     1.07673244e-04     0.00000000e+00    
           4.66158148e-04     1.17675037e-04     0.00000000e+00    
           4.61192743e-04     1.25341830e-04     0.00000000e+00    
           4.56156180e-04     1.28690008e-04     0.00000000e+00    
           4.49585757e-04     1.29573091e-04     0.00000000e+00    
           4.41597600e-04     1.29357315e-04     0.00000000e+00    
           4.24663100e-04     1.23790451e-04     0.00000000e+00    
           4.16926894e-04     1.18542986e-04     0.00000000e+00    
           4.10486653e-04     1.12089496e-04     0.00000000e+00    
           4.06063307e-04     1.04451108e-04     0.00000000e+00    
           4.04065184e-04     9.59393365e-05     0.00000000e+00    
           4.04266175e-04     8.70729709e-05     0.00000000e+00    
           4.06867301e-04     7.95291635e-05     0.00000000e+00    
           4.12123307e-04     7.39883326e-05     0.00000000e+00    
           4.19781281e-04     7.05567072e-05     0.00000000e+00    
           4.29338863e-04     6.87779611e-05     0.00000000e+00    
           4.40763804e-04     6.89841254e-05     0.00000000e+00    
           4.41199838e-04     9.91663183e-05     0.00000000e+00    
           6.93056034e-04     3.26917769e-04     0.00000000e+00    
           7.22027908e-04     3.36274563e-04     0.00000000e+00    
           7.35821377e-04     3.45367880e-04     0.00000000e+00    
           7.38256727e-04     3.53694457e-04     0.00000000e+00    
           7.38969306e-04     3.63362546e-04     0.00000000e+00    
           7.37519702e-04     3.72664828e-04     0.00000000e+00    
           7.33583991e-04     3.80216836e-04     0.00000000e+00    
           7.26621074e-04     3.85259424e-04     0.00000000e+00    
           7.17717572e-04     3.87692300e-04     0.00000000e+00    
           7.07952131e-04     3.88870831e-04     0.00000000e+00    
           6.98205666e-04     3.88686109e-04     0.00000000e+00    
           6.82301412e-04     3.83564271e-04     0.00000000e+00    
           6.74505078e-04     3.78314231e-04     0.00000000e+00    
           6.67834480e-04     3.72013281e-04     0.00000000e+00    
           6.63345563e-04     3.65641870e-04     0.00000000e+00    
           6.61148282e-04     3.58685968e-04     0.00000000e+00    
           6.61174010e-04     3.50813469e-04     0.00000000e+00    
           6.63242128e-04     3.41915933e-04     0.00000000e+00    
           6.67343207e-04     3.32175056e-04     0.00000000e+00    
           6.73702569e-04     3.25259345e-04     0.00000000e+00    
           3.22027918e-04     3.36274563e-04     0.00000000e+00    
           2.93056015e-04     3.26917769e-04     0.00000000e+00    
           2.90581287e-04     3.22063366e-04     0.00000000e+00    
           3.00120475e-04     3.23148881e-04     0.00000000e+00    
           3.09873605e-04     3.25752189e-04     0.00000000e+00    
           3.18827340e-04     3.29745904e-04     0.00000000e+00    
           3.26237787e-04     3.33939155e-04     0.00000000e+00    
           3.98233184e-04     2.82089255e-04     0.00000000e+00    
           4.08484280e-04     2.88734474e-04     0.00000000e+00    
           4.18201700e-04     2.97275110e-04     0.00000000e+00    
           4.23349440e-04     3.05238238e-04     0.00000000e+00    
           4.23497579e-04     3.10107658e-04     0.00000000e+00    
           4.20418277e-04     3.14643432e-04     0.00000000e+00    
           4.16748953e-04     3.20247142e-04     0.00000000e+00    
           4.12087218e-04     3.26851528e-04     0.00000000e+00    
           4.06050123e-04     3.32227151e-04     0.00000000e+00    
           3.98766744e-04     3.35714110e-04     0.00000000e+00    
           3.89418652e-04     3.36848665e-04     0.00000000e+00    
           3.79407982e-04     3.35778837e-04     0.00000000e+00    
           3.59654834e-04     3.30009032e-04     0.00000000e+00    
           3.53238895e-04     3.26278590e-04     0.00000000e+00    
           3.49216512e-04     3.22337874e-04     0.00000000e+00    
           3.46604182e-04     3.16538673e-04     0.00000000e+00    
           3.45263572e-04     3.09454190e-04     0.00000000e+00    
           3.45425477e-04     3.01240274e-04     0.00000000e+00    
           3.46812420e-04     2.93036486e-04     0.00000000e+00    
           3.49564216e-04     2.86895985e-04     0.00000000e+00    
           3.54488700e-04     2.82731751e-04     0.00000000e+00    
           3.61198210e-04     2.79701053e-04     0.00000000e+00    
           3.69348272e-04     2.77713989e-04     0.00000000e+00    
           3.78588564e-04     2.77061568e-04     0.00000000e+00    
           3.80883837e-04     3.09098279e-04     0.00000000e+00    
           6.42133004e-04     3.62393650e-04     0.00000000e+00    
           6.42997620e-04     3.64794309e-04     0.00000000e+00    
           6.43273932e-04     3.66885186e-04     0.00000000e+00    
           6.42491970e-04     3.68316571e-04     0.00000000e+00    
           6.40405575e-04     3.69212736e-04     0.00000000e+00    
           6.37430465e-04     3.69655027e-04     0.00000000e+00    
           6.33671123e-04     3.69532412e-04     0.00000000e+00    
           6.29469228e-04     3.68725974e-04     0.00000000e+00    
           6.24932698e-04     3.67569999e-04     0.00000000e+00    
           6.21313637e-04     3.66099004e-04     0.00000000e+00    
           6.19830505e-04     3.64627689e-04     0.00000000e+00    
           6.20123988e-04     3.63394385e-04     0.00000000e+00    
           6.20564213e-04     3.61775223e-04     0.00000000e+00    
           6.21286221e-04     3.59717640e-04     0.00000000e+00    
           6.22465101e-04     3.57043376e-04     0.00000000e+00    
           6.24138105e-04     3.54159361e-04     0.00000000e+00    
           6.26699184e-04     3.52994713e-04     0.00000000e+00    
           6.30597759e-04     3.54000309e-04     0.00000000e+00    
           6.34421711e-04     3.56343371e-04     0.00000000e+00    
           6.38335710e-04     3.58638121e-04     0.00000000e+00    
           6.31261908e-04     3.63173662e-04     0.00000000e+00    
           3.36768193e-04     1.43428682e-04     0.00000000e+00    
           3.36807367e-04     1.43692319e-04     0.00000000e+00    