<?xml version="1.0"?>
<VTKFile type="UnstructuredGrid" version="0.1">
  <UnstructuredGrid>
    <Piece NumberOfPoints="1636" NumberOfCells="3138">
      <Points>
        <DataArray type="Float32" NumberOfComponents="3">
           5.21582007e-01     5.11657000e-01     0.00000000e+00    
           5.07319987e-01     5.11657000e-01     0.00000000e+00    
           5.11602998e-01     5.13803005e-01     0.00000000e+00    
           5.17298996e-01     5.09510994e-01     0.00000000e+00    
           4.65243995e-01     5.17907977e-01     0.00000000e+00    
           4.65243995e-01     5.11415005e-01     0.00000000e+00    
           4.65243995e-01     5.04921973e-01     0.00000000e+00    
           4.75246996e-01     5.11415005e-01     0.00000000e+00    
           5.33852994e-01     5.04921973e-01     0.00000000e+00    
           5.33852994e-01     5.11415005e-01     0.00000000e+00    
           5.33852994e-01     5.17907977e-01     0.00000000e+00    
           4.83779997e-01     5.34618974e-01     0.00000000e+00    
           4.76381987e-01     5.34618974e-01     0.00000000e+00    
           4.68984991e-01     5.34618974e-01     0.00000000e+00    
           4.76381987e-01     5.23841977e-01     0.00000000e+00    
           4.68984991e-01     4.66010004e-01     0.00000000e+00    
           4.76381987e-01     4.66010004e-01     0.00000000e+00    
           4.83779997e-01     4.66010004e-01     0.00000000e+00    
           4.99920011e-01     5.34618974e-01     0.00000000e+00    
           4.94562000e-01     5.34618974e-01     0.00000000e+00    
           4.89203990e-01     5.34618974e-01     0.00000000e+00    
           4.94562000e-01     5.22280991e-01     0.00000000e+00    
           4.89203990e-01     4.66010004e-01     0.00000000e+00    
           4.94562000e-01     4.66010004e-01     0.00000000e+00    
           4.99920011e-01     4.66010004e-01     0.00000000e+00    
           5.32517016e-01     4.74112004e-01     0.00000000e+00    
           5.17961025e-01     4.74112004e-01     0.00000000e+00    
           5.22153020e-01     4.76040006e-01     0.00000000e+00    
           5.28325021e-01     4.72182989e-01     0.00000000e+00    
           5.33852994e-01     5.19801974e-01     0.00000000e+00    
           5.33852994e-01     5.24702013e-01     0.00000000e+00    
           5.33852994e-01     5.29603004e-01     0.00000000e+00    
           5.19536972e-01     5.24702013e-01     0.00000000e+00    
           4.65243995e-01     5.29603004e-01     0.00000000e+00    
           4.65243995e-01     5.24702013e-01     0.00000000e+00    
           4.65243995e-01     5.19801974e-01     0.00000000e+00    
           4.92487997e-01     5.17117977e-01     0.00000000e+00    
           4.76904988e-01     5.17117977e-01     0.00000000e+00    
           4.81225997e-01     5.18886983e-01     0.00000000e+00    
           4.88168001e-01     5.15349984e-01     0.00000000e+00    
           5.17996013e-01     5.27033985e-01     0.00000000e+00    
           5.04473984e-01     5.27033985e-01     0.00000000e+00    
           5.10882020e-01     5.30395985e-01     0.00000000e+00    
           5.11587977e-01     5.23671985e-01     0.00000000e+00    
           5.08446991e-01     4.83435005e-01     0.00000000e+00    
           4.94414002e-01     4.83435005e-01     0.00000000e+00    
           5.03341019e-01     4.86377001e-01     0.00000000e+00    
           4.99518991e-01     4.80491996e-01     0.00000000e+00    
           4.65243995e-01     4.83101994e-01     0.00000000e+00    
           4.65243995e-01     4.78758007e-01     0.00000000e+00    
           4.65243995e-01     4.74415004e-01     0.00000000e+00    
           4.78336990e-01     4.78758007e-01     0.00000000e+00    
           4.69897985e-01     4.81519997e-01     0.00000000e+00    
           4.72241998e-01     4.75997001e-01     0.00000000e+00    
           5.33852994e-01     4.74415004e-01     0.00000000e+00    
           5.33852994e-01     4.78758007e-01     0.00000000e+00    
           5.33852994e-01     4.83101994e-01     0.00000000e+00    
           4.80668008e-01     4.95810986e-01     0.00000000e+00    
           4.66084987e-01     4.95810986e-01     0.00000000e+00    
           4.72070009e-01     4.99215007e-01     0.00000000e+00    
           4.74682987e-01     4.92406994e-01     0.00000000e+00    
           4.93930012e-01     4.79214013e-01     0.00000000e+00    
           4.78967011e-01     4.79214013e-01     0.00000000e+00    
           4.87289995e-01     4.82858986e-01     0.00000000e+00    
           4.85606998e-01     4.75569010e-01     0.00000000e+00    
           5.09284973e-01     4.97658014e-01     0.00000000e+00    
           4.95503992e-01     4.97658014e-01     0.00000000e+00    
           5.00939012e-01     5.00781000e-01     0.00000000e+00    
           5.03850996e-01     4.94536012e-01     0.00000000e+00    
           5.33011973e-01     5.01751006e-01     0.00000000e+00    
           5.17829001e-01     5.01751006e-01     0.00000000e+00    
           5.29196024e-01     5.02147973e-01     0.00000000e+00    
           5.21646023e-01     5.01353979e-01     0.00000000e+00    
           4.95451003e-01     5.00564992e-01     0.00000000e+00    
           4.80922014e-01     5.00564992e-01     0.00000000e+00    
           4.86593992e-01     5.03829002e-01     0.00000000e+00    
           4.89778996e-01     4.97299999e-01     0.00000000e+00    
           5.25367022e-01     4.88312006e-01     0.00000000e+00    
           5.09521008e-01     4.88312006e-01     0.00000000e+00    
           5.15170991e-01     4.91557002e-01     0.00000000e+00    
           5.19716024e-01     4.85067010e-01     0.00000000e+00    
           4.65243995e-01     5.34618974e-01     0.00000000e+00    
           4.65243995e-01     4.66010004e-01     0.00000000e+00    
           5.33852994e-01     4.66010004e-01     0.00000000e+00    
           5.33852994e-01     5.34618974e-01     0.00000000e+00    
           5.21338999e-01     5.13502657e-01     0.00000000e+00    
           5.20626605e-01     5.15222490e-01     0.00000000e+00    
           5.19493401e-01     5.16699374e-01     0.00000000e+00    
           5.18016517e-01     5.17832637e-01     0.00000000e+00    
           5.16296625e-01     5.18545032e-01     0.00000000e+00    
           5.14451027e-01     5.18787980e-01     0.00000000e+00    
           5.12605369e-01     5.18545032e-01     0.00000000e+00    
           5.10885477e-01     5.17832637e-01     0.00000000e+00    
           5.09408593e-01     5.16699374e-01     0.00000000e+00    
           5.08275390e-01     5.15222490e-01     0.00000000e+00    
           5.07562995e-01     5.13502657e-01     0.00000000e+00    
           5.07562995e-01     5.09811342e-01     0.00000000e+00    
           5.08275390e-01     5.08091509e-01     0.00000000e+00    
           5.09408593e-01     5.06614625e-01     0.00000000e+00    
           5.10885477e-01     5.05481362e-01     0.00000000e+00    
           5.12605369e-01     5.04768968e-01     0.00000000e+00    
           5.14451027e-01     5.04526019e-01     0.00000000e+00    
           5.16296625e-01     5.04768968e-01     0.00000000e+00    
           5.18016517e-01     5.05481362e-01     0.00000000e+00    
           5.19493401e-01     5.06614625e-01     0.00000000e+00    
           5.20626605e-01     5.08091509e-01     0.00000000e+00    
           5.21338999e-01     5.09811342e-01     0.00000000e+00    
           5.14451027e-01     5.11657000e-01     0.00000000e+00    
           4.65243995e-01     5.16254604e-01     0.00000000e+00    
           4.65243995e-01     5.14134228e-01     0.00000000e+00    
           4.65243995e-01     5.08695781e-01     0.00000000e+00    
           4.65243995e-01     5.06575406e-01     0.00000000e+00    
           4.66931671e-01     5.04409373e-01     0.00000000e+00    
           4.68693614e-01     5.04328012e-01     0.00000000e+00    
           4.70421344e-01     5.04682958e-01     0.00000000e+00    
           4.72008497e-01     5.05452335e-01     0.00000000e+00    
           4.73357379e-01     5.06588817e-01     0.00000000e+00    
           4.74384934e-01     5.08022368e-01     0.00000000e+00    
           4.75027919e-01     5.09664834e-01     0.00000000e+00    
           4.75028187e-01     5.13165236e-01     0.00000000e+00    
           4.74385172e-01     5.14807761e-01     0.00000000e+00    
           4.73357558e-01     5.16241372e-01     0.00000000e+00    
           4.72008646e-01     5.17377913e-01     0.00000000e+00    
           4.70421433e-01     5.18147290e-01     0.00000000e+00    
           4.68693614e-01     5.18502235e-01     0.00000000e+00    
           4.66931641e-01     5.18420875e-01     0.00000000e+00    
           5.33852994e-01     5.06575406e-01     0.00000000e+00    
           5.33852994e-01     5.08695781e-01     0.00000000e+00    
           5.33852994e-01     5.14134228e-01     0.00000000e+00    
           5.33852994e-01     5.16254604e-01     0.00000000e+00    
           5.32303810e-01     5.16964078e-01     0.00000000e+00    
           5.31043947e-01     5.15658796e-01     0.00000000e+00    
           5.30155540e-01     5.14077127e-01     0.00000000e+00    
           5.29696345e-01     5.12322068e-01     0.00000000e+00    
           5.29696345e-01     5.10507941e-01     0.00000000e+00    
           5.30155540e-01     5.08752882e-01     0.00000000e+00    
           5.31043947e-01     5.07171214e-01     0.00000000e+00    
           5.32303810e-01     5.05865932e-01     0.00000000e+00    
           4.81947482e-01     5.34618974e-01     0.00000000e+00    
           4.79541332e-01     5.34618974e-01     0.00000000e+00    
           4.73223150e-01     5.34618974e-01     0.00000000e+00    
           4.70817327e-01     5.34618974e-01     0.00000000e+00    
           4.68517244e-01     5.32760799e-01     0.00000000e+00    
[...]
      <PointData>
        <DataArray type="Float32" Name="Displacement" NumberOfComponents="3">
           5.06064156e-04     2.25500742e-04     0.00000000e+00    
           4.95151151e-04     2.62019574e-04     0.00000000e+00    
           5.06253855e-04     2.53585138e-04     0.00000000e+00    
           4.97041619e-04     2.33246901e-04     0.00000000e+00    
           2.29450336e-04     2.36323642e-04     0.00000000e+00    
           2.06395358e-04     2.24568532e-04     0.00000000e+00    
           1.87902595e-04     2.16039960e-04     0.00000000e+00    
           2.20808477e-04     2.11673105e-04     0.00000000e+00    
           5.37902582e-04     2.16039960e-04     0.00000000e+00    
           5.56395331e-04     2.24568532e-04     0.00000000e+00    
           5.79450338e-04     2.36323642e-04     0.00000000e+00    
           4.02952428e-04     3.15009616e-04     0.00000000e+00    
           3.97025957e-04     3.44545580e-04     0.00000000e+00    
           3.90799280e-04     3.71594069e-04     0.00000000e+00    
           3.47917783e-04     3.32867232e-04     0.00000000e+00    
           4.07992702e-05     2.15940654e-05     0.00000000e+00    
           4.70259620e-05    -5.45443027e-06     0.00000000e+00    
           5.29524259e-05    -3.49903785e-05     0.00000000e+00    
           4.62873257e-04     2.86276190e-04     0.00000000e+00    
           4.58318857e-04     2.97693477e-04     0.00000000e+00    
           4.54056892e-04     3.11405194e-04     0.00000000e+00    
           4.17684874e-04     2.86742375e-04     0.00000000e+00    
           1.04056882e-04    -3.85947969e-05     0.00000000e+00    
           1.08318862e-04    -5.23065282e-05     0.00000000e+00    
           1.12873262e-04    -6.37238190e-05     0.00000000e+00    
           3.97215452e-04     6.29595597e-05     0.00000000e+00    
           3.79035802e-04     1.11379493e-04     0.00000000e+00    
           3.89892230e-04     1.00345438e-04     0.00000000e+00    
           3.81372898e-04     7.39565949e-05     0.00000000e+00    
           5.96556172e-04     2.82020046e-04     0.00000000e+00    
           6.19430793e-04     2.90601660e-04     0.00000000e+00    
           6.40230894e-04     2.96258368e-04     0.00000000e+00    
           6.03669614e-04     3.38685175e-04     0.00000000e+00    
           2.90230906e-04     2.96258368e-04     0.00000000e+00    
           2.69430806e-04     2.90601660e-04     0.00000000e+00    
           2.46556185e-04     2.82020046e-04     0.00000000e+00    
           3.39739840e-04     2.43545335e-04     0.00000000e+00    
           3.22943786e-04     2.91894481e-04     0.00000000e+00    
           3.36514844e-04     2.82274588e-04     0.00000000e+00    
           3.28594178e-04     2.57136358e-04     0.00000000e+00    
           5.60935121e-04     3.15333833e-04     0.00000000e+00    
           5.42253954e-04     3.19567655e-04     0.00000000e+00    
           5.54913422e-04     3.20646242e-04     0.00000000e+00    
           5.49794466e-04     3.14450648e-04     0.00000000e+00    
           2.90748634e-04     1.23248930e-04     0.00000000e+00    
           2.62500980e-04     1.17921030e-04     0.00000000e+00    
           2.84861831e-04     1.25425751e-04     0.00000000e+00    
           2.69531156e-04     1.19682663e-04     0.00000000e+00    
           1.26232771e-04     9.05034176e-05     0.00000000e+00    
           1.05432358e-04     8.53292149e-05     0.00000000e+00    
           8.87824135e-05     8.22866423e-05     0.00000000e+00    
           1.30583998e-04     4.88846854e-05     0.00000000e+00    
           1.24650876e-04     7.47852537e-05     0.00000000e+00    
           1.07449137e-04     6.33018572e-05     0.00000000e+00    
           4.38782416e-04     8.22866423e-05     0.00000000e+00    
           4.55432368e-04     8.53292149e-05     0.00000000e+00    
           4.76232759e-04     9.05034176e-05     0.00000000e+00    
           2.15521781e-04     1.58633964e-04     0.00000000e+00    
           1.98100883e-04     1.74220258e-04     0.00000000e+00    
           2.09324207e-04     1.69149527e-04     0.00000000e+00    
           2.00915252e-04     1.59388568e-04     0.00000000e+00    
           1.97322253e-04     6.38248966e-05     0.00000000e+00    
           1.65277728e-04     6.75363190e-05     0.00000000e+00    
           1.88951250e-04     6.53328025e-05     0.00000000e+00    
           1.73400680e-04     6.19635684e-05     0.00000000e+00    
           3.28780443e-04     1.50734326e-04     0.00000000e+00    
           3.09255993e-04     1.72234853e-04     0.00000000e+00    
           3.26112029e-04     1.64714103e-04     0.00000000e+00    
           3.15859390e-04     1.53678688e-04     0.00000000e+00    
           4.96609020e-04     1.81298397e-04     0.00000000e+00    
           4.80879709e-04     2.16691522e-04     0.00000000e+00    
           4.94690845e-04     1.92212014e-04     0.00000000e+00    
           4.82104544e-04     2.03775067e-04     0.00000000e+00    
           2.88974290e-04     1.71006759e-04     0.00000000e+00    
           2.65304814e-04     1.91089959e-04     0.00000000e+00    
           2.79792817e-04     1.87849044e-04     0.00000000e+00    
           2.72656587e-04     1.78005779e-04     0.00000000e+00    
           4.05950879e-04     1.48900624e-04     0.00000000e+00    
           3.85791122e-04     1.74415400e-04     0.00000000e+00    
           4.06119827e-04     1.72961125e-04     0.00000000e+00    
           3.93825321e-04     1.57916249e-04     0.00000000e+00    
           3.49999988e-04     3.49999988e-04     0.00000000e+00    
           0.00000000e+00     0.00000000e+00     0.00000000e+00    
           3.49999988e-04     0.00000000e+00     0.00000000e+00    
           6.99999975e-04     3.49999988e-04     0.00000000e+00    
           5.11946797e-04     2.28945544e-04     0.00000000e+00    
           5.17772161e-04     2.33290484e-04     0.00000000e+00    
           5.22293558e-04     2.38080524e-04     0.00000000e+00    
           5.24905685e-04     2.42598588e-04     0.00000000e+00    
           5.25663549e-04     2.47696065e-04     0.00000000e+00    
           5.24808478e-04     2.53032194e-04     0.00000000e+00    
           5.22986869e-04     2.57640117e-04     0.00000000e+00    
           5.19657508e-04     2.60660338e-04     0.00000000e+00    
           5.14560845e-04     2.62606540e-04     0.00000000e+00    
           5.08541707e-04     2.63462687e-04     0.00000000e+00    
           5.02011797e-04     2.63376802e-04     0.00000000e+00    
           4.88339050e-04     2.59065360e-04     0.00000000e+00    
           4.82161850e-04     2.55116262e-04     0.00000000e+00    
           4.77332273e-04     2.50566722e-04     0.00000000e+00    
           4.74427565e-04     2.46174139e-04     0.00000000e+00    
           4.74144064e-04     2.41680405e-04     0.00000000e+00    
           4.76176850e-04     2.37229193e-04     0.00000000e+00    
           4.79626091e-04     2.32587176e-04     0.00000000e+00    
           4.84886870e-04     2.27560056e-04     0.00000000e+00    
           4.92182968e-04     2.22355302e-04     0.00000000e+00    
           4.96247201e-04     2.22173388e-04     0.00000000e+00    
           5.00299968e-04     2.23366427e-04     0.00000000e+00    
           5.01210860e-04     2.43668139e-04     0.00000000e+00    
           2.23814044e-04     2.33649786e-04     0.00000000e+00    
           2.16590503e-04     2.29893849e-04     0.00000000e+00    
           1.95784552e-04     2.19734851e-04     0.00000000e+00    
           1.89408762e-04     2.17230147e-04     0.00000000e+00    
           1.91221930e-04     2.15056702e-04     0.00000000e+00    
           1.94045962e-04     2.13591018e-04     0.00000000e+00    
           1.96559544e-04     2.11485240e-04     0.00000000e+00    
           1.99900765e-04     2.10019469e-04     0.00000000e+00    
           2.03873031e-04     2.09364414e-04     0.00000000e+00    
           2.08969592e-04     2.09197620e-04     0.00000000e+00    
           2.14548767e-04     2.10072889e-04     0.00000000e+00    
           2.26433665e-04     2.13680629e-04     0.00000000e+00    
           2.30168225e-04     2.15494598e-04     0.00000000e+00    
           2.32318445e-04     2.17729612e-04     0.00000000e+00    
           2.33434286e-04     2.20523536e-04     0.00000000e+00    
           2.34081512e-04     2.23938521e-04     0.00000000e+00    
           2.33708823e-04     2.27588345e-04     0.00000000e+00    
           2.32057384e-04     2.31581027e-04     0.00000000e+00    
           5.39408764e-04     2.17230147e-04     0.00000000e+00    
           5.45784540e-04     2.19734851e-04     0.00000000e+00    
           5.66590519e-04     2.29893849e-04     0.00000000e+00    
           5.73814032e-04     2.33649786e-04     0.00000000e+00    
           5.75515733e-04     2.40182606e-04     0.00000000e+00    
           5.70742472e-04     2.41122674e-04     0.00000000e+00    
           5.64862741e-04     2.39866014e-04     0.00000000e+00    
           5.57973050e-04     2.37607543e-04     0.00000000e+00    
           5.50217927e-04     2.33559549e-04     0.00000000e+00    
           5.41571819e-04     2.27238110e-04     0.00000000e+00    
           5.32576349e-04     2.18185029e-04     0.00000000e+00    
           5.34093473e-04     2.15299238e-04     0.00000000e+00    
           4.01702651e-04     3.22694948e-04     0.00000000e+00    
           3.99823039e-04     3.32351483e-04     0.00000000e+00    
           3.94209987e-04     3.56372591e-04     0.00000000e+00    
           3.92228510e-04     3.64984153e-04     0.00000000e+00    
           3.80462443e-04     3.70415946e-04     0.00000000e+00    
           3.70464521e-04     3.67564207e-04     0.00000000e+00    
           3.61781509e-04     3.63826548e-04     0.00000000e+00    
           3.55350232e-04     3.59276804e-04     0.00000000e+00    
           3.50977120e-04     3.53521493e-04     0.00000000e+00    
           3.48187838e-04     3.46918066e-04     0.00000000e+00    
           3.47096706e-04     3.39872815e-04     0.00000000e+00    
           3.50977672e-04     3.25502071e-04     0.00000000e+00    
           3.55444907e-04     3.18701932e-04     0.00000000e+00    
           3.61169223e-04     3.13714001e-04     0.00000000e+00    
           3.68456647e-04     3.10510397e-04     0.00000000e+00    
           3.77131451e-04     3.08882416e-04     0.00000000e+00    
           3.85933090e-04     3.08914547e-04     0.00000000e+00    
           3.94627423e-04     3.10764095e-04     0.00000000e+00    
           4.22285157e-05     1.49841553e-05     0.00000000e+00    
           4.42099990e-05     6.37258290e-06     0.00000000e+00    
           4.98230474e-05    -1.76485300e-05     0.00000000e+00    
           5.17026456e-05    -2.73050446e-05     0.00000000e+00    
           6.07524526e-05    -2.90385415e-05     0.00000000e+00    
           6.72388414e-05    -2.17995421e-05     0.00000000e+00    
           7.14866328e-05    -1.43865136e-05     0.00000000e+00    
           7.29757448e-05    -7.08959897e-06     0.00000000e+00    
           7.19922391e-05     8.11253926e-07     0.00000000e+00    
           6.93129332e-05     8.55792223e-06     0.00000000e+00    
           6.48359637e-05     1.47077590e-05     0.00000000e+00    
           5.83445180e-05     1.84618457e-05     0.00000000e+00    
           5.00092865e-05     2.07602661e-05     0.00000000e+00    
           4.60985961e-04     2.90916476e-04     0.00000000e+00    
           4.55850473e-04     3.05340334e-04     0.00000000e+00    
           4.47693514e-04     3.12665623e-04     0.00000000e+00    
           4.40911885e-04     3.12651624e-04     0.00000000e+00    
           4.34092886e-04     3.11274081e-04     0.00000000e+00    
           4.27204533e-04     3.08052578e-04     0.00000000e+00    
           4.19708231e-04     3.02233238e-04     0.00000000e+00    
           4.13626578e-04     2.95202626e-04     0.00000000e+00    
           4.11935936e-04     2.90484633e-04     0.00000000e+00    
           4.14017268e-04     2.88536568e-04     0.00000000e+00    
           4.21901786e-04     2.84298032e-04     0.00000000e+00    
           4.26963874e-04     2.81908113e-04     0.00000000e+00    
           4.33174340e-04     2.80069449e-04     0.00000000e+00    
           4.39964671e-04     2.78836029e-04     0.00000000e+00    
           4.46367922e-04     2.78223219e-04     0.00000000e+00    
           4.51672502e-04     2.78504303e-04     0.00000000e+00    
           4.55772242e-04     2.79779488e-04     0.00000000e+00    
           4.59467497e-04     2.82524474e-04     0.00000000e+00    
           1.05850471e-04    -4.46596605e-05     0.00000000e+00    
           1.10985951e-04    -5.90835334e-05     0.00000000e+00    
           1.15388502e-04    -5.91971257e-05     0.00000000e+00    
           1.16617077e-04    -5.43781352e-05     0.00000000e+00    
           1.16214622e-04    -4.96450484e-05     0.00000000e+00    
           1.13837879e-04    -4.50908883e-05     0.00000000e+00    
           1.09778266e-04    -4.12853624e-05     0.00000000e+00    
           4.07090731e-04     6.66829801e-05     0.00000000e+00    
           4.11333720e-04     7.02723337e-05     0.00000000e+00    
           4.12528985e-04     7.38396193e-05     0.00000000e+00    
           4.13175847e-04     7.93594591e-05     0.00000000e+00    
           4.12914756e-04     8.63531168e-05     0.00000000e+00    
           4.11246961e-04     9.42140905e-05     0.00000000e+00    
           4.07888379e-04     1.02965663e-04     0.00000000e+00    
           4.03543643e-04     1.09674096e-04     0.00000000e+00    
           3.99136654e-04     1.12603760e-04     0.00000000e+00    
           3.93387541e-04     1.13376453e-04     0.00000000e+00    
           3.86397907e-04     1.13187649e-04     0.00000000e+00    
           3.71580216e-04     1.08316643e-04     0.00000000e+00    
           3.64811043e-04     1.03725113e-04     0.00000000e+00    
           3.59175843e-04     9.80783079e-05     0.00000000e+00    
           3.55305412e-04     9.13947224e-05     0.00000000e+00    
           3.53557029e-04     8.39469212e-05     0.00000000e+00    
           3.53732903e-04     7.61888514e-05     0.00000000e+00    
           3.56008881e-04     6.95880153e-05     0.00000000e+00    
           3.60607897e-04     6.47397901e-05     0.00000000e+00    
           3.67308618e-04     6.17371188e-05     0.00000000e+00    
           3.75671487e-04     6.01807187e-05     0.00000000e+00    
           3.85668332e-04     6.03611115e-05     0.00000000e+00    
           3.86049855e-04     8.67705239e-05     0.00000000e+00    
           6.06424001e-04     2.86053051e-04     0.00000000e+00    
           6.31774426e-04     2.94240250e-04     0.00000000e+00    
           6.43843669e-04     3.02196888e-04     0.00000000e+00    
           6.45974651e-04     3.09482653e-04     0.00000000e+00    
           6.46598171e-04     3.17942235e-04     0.00000000e+00    
           6.45329710e-04     3.26081732e-04     0.00000000e+00    
           6.41885970e-04     3.32689728e-04     0.00000000e+00    
           6.35793491e-04     3.37102014e-04     0.00000000e+00    
           6.28002919e-04     3.39230755e-04     0.00000000e+00    
           6.19458093e-04     3.40261962e-04     0.00000000e+00    
           6.10929972e-04     3.40100349e-04     0.00000000e+00    
           5.97013743e-04     3.35618737e-04     0.00000000e+00    
           5.90191921e-04     3.31024930e-04     0.00000000e+00    
           5.84355148e-04     3.25511617e-04     0.00000000e+00    
           5.80427353e-04     3.19936633e-04     0.00000000e+00    
           5.78504754e-04     3.13850207e-04     0.00000000e+00    
           5.78527281e-04     3.06961767e-04     0.00000000e+00    
           5.80336840e-04     2.99176434e-04     0.00000000e+00    
           5.83925284e-04     2.90653174e-04     0.00000000e+00    
           5.89489762e-04     2.84601934e-04     0.00000000e+00    
           2.81774439e-04     2.94240250e-04     0.00000000e+00    
           2.56424013e-04     2.86053051e-04     0.00000000e+00    
           2.54258630e-04     2.81805434e-04     0.00000000e+00    
           2.62605405e-04     2.82755267e-04     0.00000000e+00    
           2.71139405e-04     2.85033166e-04     0.00000000e+00    
           2.78973923e-04     2.88527663e-04     0.00000000e+00    
           2.85458082e-04     2.92196783e-04     0.00000000e+00    
           3.48454021e-04     2.46828102e-04     0.00000000e+00    
           3.57423734e-04     2.52642669e-04     0.00000000e+00    
           3.65926477e-04     2.60115718e-04     0.00000000e+00    
           3.70430760e-04     2.67083466e-04     0.00000000e+00    
           3.70560359e-04     2.71344208e-04     0.00000000e+00    
           3.67865985e-04     2.75313010e-04     0.00000000e+00    
           3.64655338e-04     2.80216249e-04     0.00000000e+00    
           3.60576320e-04     2.85995106e-04     0.00000000e+00    
           3.55293858e-04     2.90698750e-04     0.00000000e+00    
           3.48920905e-04     2.93749850e-04     0.00000000e+00    
           3.40741331e-04     2.94742582e-04     0.00000000e+00    
           3.31981981e-04     2.93806486e-04     0.00000000e+00    
           3.14698002e-04     2.88757903e-04     0.00000000e+00    
           3.09084018e-04     2.85493763e-04     0.00000000e+00    
           3.05564434e-04     2.82045658e-04     0.00000000e+00    
           3.03278648e-04     2.76971317e-04     0.00000000e+00    
           3.02105618e-04     2.70772405e-04     0.00000000e+00    
           3.02247296e-04     2.63585243e-04     0.00000000e+00    
           3.03460867e-04     2.56406929e-04     0.00000000e+00    
           3.05868685e-04     2.51033984e-04     0.00000000e+00    
           3.10177624e-04     2.47390271e-04     0.00000000e+00    
           3.16048448e-04     2.44738418e-04     0.00000000e+00    
           3.23179760e-04     2.42999740e-04     0.00000000e+00    
           3.31265008e-04     2.42428869e-04     0.00000000e+00    
           3.33273347e-04     2.70460994e-04     0.00000000e+00    
           5.61866385e-04     3.17094440e-04     0.00000000e+00    
           5.62622910e-04     3.19195009e-04     0.00000000e+00    
           5.62864705e-04     3.21024534e-04     0.00000000e+00    
           5.62180474e-04     3.22276988e-04     0.00000000e+00    
           5.60354907e-04     3.23061162e-04     0.00000000e+00    
           5.57751628e-04     3.23448156e-04     0.00000000e+00    
           5.54462255e-04     3.23340850e-04     0.00000000e+00    
           5.50785568e-04     3.22635227e-04     0.00000000e+00    
           5.46816096e-04     3.21623753e-04     0.00000000e+00    
           5.43649425e-04     3.20336636e-04     0.00000000e+00    
           5.42351685e-04     3.19049228e-04     0.00000000e+00    
           5.42608497e-04     3.17970087e-04     0.00000000e+00    
           5.42993715e-04     3.16553313e-04     0.00000000e+00    
           5.43625443e-04     3.14752921e-04     0.00000000e+00    
           5.44656941e-04     3.12412943e-04     0.00000000e+00    
           5.46120806e-04     3.09889438e-04     0.00000000e+00    
           5.48361801e-04     3.08870367e-04     0.00000000e+00    
           5.51773002e-04     3.09750263e-04     0.00000000e+00    
           5.55119012e-04     3.11800453e-04     0.00000000e+00    
           5.58543717e-04     3.13808356e-04     0.00000000e+00    
           5.52354206e-04     3.17776954e-04     0.00000000e+00    
           2.94672180e-04     1.25500097e-04     0.00000000e+00    
           2.94706435e-04     1.25730789e-04     0.00000000e+00    