<?xml version="1.0"?>
<VTKFile type="UnstructuredGrid" version="0.1">
  <UnstructuredGrid>
    <Piece NumberOfPoints="1636" NumberOfCells="3138">
      <Points>
        <DataArray type="Float32" NumberOfComponents="3">
           5.21582007e-01     5.11657000e-01     0.00000000e+00    
           5.07319987e-01     5.11657000e-01     0.00000000e+00    
           5.11602998e-01     5.13803005e-01     0.00000000e+00    
           5.17298996e-01     5.09510994e-01     0.00000000e+00    
           4.65243995e-01     5.17907977e-01     0.00000000e+00    
           4.65243995e-01     5.11415005e-01     0.00000000e+00    
           4.65243995e-01     5.04921973e-01     0.00000000e+00    
           4.75246996e-01     5.11415005e-01     0.00000000e+00    
           5.33852994e-01     5.04921973e-01     0.00000000e+00    
           5.33852994e-01     5.11415005e-01     0.00000000e+00    
           5.33852994e-01     5.17907977e-01     0.00000000e+00    
           4.83779997e-01     5.34618974e-01     0.00000000e+00    
           4.76381987e-01     5.34618974e-01     0.00000000e+00    
           4.68984991e-01     5.34618974e-01     0.00000000e+00    
           4.76381987e-01     5.23841977e-01     0.00000000e+00    
           4.68984991e-01     4.66010004e-01     0.00000000e+00    
           4.76381987e-01     4.66010004e-01     0.00000000e+00    
           4.83779997e-01     4.66010004e-01     0.00000000e+00    
           4.99920011e-01     5.34618974e-01     0.00000000e+00    
           4.94562000e-01     5.34618974e-01     0.00000000e+00    
           4.89203990e-01     5.34618974e-01     0.00000000e+00    
           4.94562000e-01     5.22280991e-01     0.00000000e+00    
           4.89203990e-01     4.66010004e-01     0.00000000e+00    
           4.94562000e-01     4.66010004e-01     0.00000000e+00    
           4.99920011e-01     4.66010004e-01     0.00000000e+00    
           5.32517016e-01     4.74112004e-01     0.00000000e+00    
           5.17961025e-01     4.74112004e-01     0.00000000e+00    
           5.22153020e-01     4.76040006e-01     0.00000000e+00    
           5.28325021e-01     4.72182989e-01     0.00000000e+00    
           5.33852994e-01     5.19801974e-01     0.00000000e+00    
           5.33852994e-01     5.24702013e-01     0.00000000e+00    
           5.33852994e-01     5.29603004e-01     0.00000000e+00    
           5.19536972e-01     5.24702013e-01     0.00000000e+00    
           4.65243995e-01     5.29603004e-01     0.00000000e+00    
           4.65243995e-01     5.24702013e-01     0.00000000e+00    
           4.65243995e-01     5.19801974e-01     0.00000000e+00    
           4.92487997e-01     5.17117977e-01     0.00000000e+00    
           4.76904988e-01     5.17117977e-01     0.00000000e+00    
           4.81225997e-01     5.18886983e-01     0.00000000e+00    
           4.88168001e-01     5.15349984e-01     0.00000000e+00    
           5.17996013e-01     5.27033985e-01     0.00000000e+00    
           5.04473984e-01     5.27033985e-01     0.00000000e+00    
           5.10882020e-01     5.30395985e-01     0.00000000e+00    
           5.11587977e-01     5.23671985e-01     0.00000000e+00    
           5.08446991e-01     4.83435005e-01     0.00000000e+00    
           4.94414002e-01     4.83435005e-01     0.00000000e+00    
           5.03341019e-01     4.86377001e-01     0.00000000e+00    
           4.99518991e-01     4.80491996e-01     0.00000000e+00    
           4.65243995e-01     4.83101994e-01     0.00000000e+00    
           4.65243995e-01     4.78758007e-01     0.00000000e+00    
           4.65243995e-01     4.74415004e-01     0.00000000e+00    
           4.78336990e-01     4.78758007e-01     0.00000000e+00    
           4.69897985e-01     4.81519997e-01     0.00000000e+00    
           4.72241998e-01     4.75997001e-01     0.00000000e+00    
           5.33852994e-01     4.74415004e-01     0.00000000e+00    
           5.33852994e-01     4.78758007e-01     0.00000000e+00    
           5.33852994e-01     4.83101994e-01     0.00000000e+00    
           4.80668008e-01     4.95810986e-01     0.00000000e+00    
           4.66084987e-01     4.95810986e-01     0.00000000e+00    
           4.72070009e-01     4.99215007e-01     0.00000000e+00    
           4.74682987e-01     4.92406994e-01     0.00000000e+00    
           4.93930012e-01     4.79214013e-01     0.00000000e+00    
           4.78967011e-01     4.79214013e-01     0.00000000e+00    
           4.87289995e-01     4.82858986e-01     0.00000000e+00    
           4.85606998e-01     4.75569010e-01     0.00000000e+00    
           5.09284973e-01     4.97658014e-01     0.00000000e+00    
           4.95503992e-01     4.97658014e-01     0.00000000e+00    
           5.00939012e-01     5.00781000e-01     0.00000000e+00    
           5.03850996e-01     4.94536012e-01     0.00000000e+00    
           5.33011973e-01     5.01751006e-01     0.00000000e+00    
           5.17829001e-01     5.01751006e-01     0.00000000e+00    
           5.29196024e-01     5.02147973e-01     0.00000000e+00    
           5.21646023e-01     5.01353979e-01     0.00000000e+00    
           4.95451003e-01     5.00564992e-01     0.00000000e+00    
           4.80922014e-01     5.00564992e-01     0.00000000e+00    
           4.86593992e-01     5.03829002e-01     0.00000000e+00    
           4.89778996e-01     4.97299999e-01     0.00000000e+00    
           5.25367022e-01     4.88312006e-01     0.00000000e+00    
           5.09521008e-01     4.88312006e-01     0.00000000e+00    
           5.15170991e-01     4.91557002e-01     0.00000000e+00    
           5.19716024e-01     4.85067010e-01     0.00000000e+00    
           4.65243995e-01     5.34618974e-01     0.00000000e+00    
           4.65243995e-01     4.66010004e-01     0.00000000e+00    
           5.33852994e-01     4.66010004e-01     0.00000000e+00    
           5.33852994e-01     5.34618974e-01     0.00000000e+00    
           5.21338999e-01     5.13502657e-01     0.00000000e+00    
           5.20626605e-01     5.15222490e-01     0.00000000e+00    
           5.19493401e-01     5.16699374e-01     0.00000000e+00    
           5.18016517e-01     5.17832637e-01     0.00000000e+00    
           5.16296625e-01     5.18545032e-01     0.00000000e+00    
           5.14451027e-01     5.18787980e-01     0.00000000e+00    
           5.12605369e-01     5.18545032e-01     0.00000000e+00    
           5.10885477e-01     5.17832637e-01     0.00000000e+00    
           5.09408593e-01     5.16699374e-01     0.00000000e+00    
           5.08275390e-01     5.15222490e-01     0.00000000e+00    
           5.07562995e-01     5.13502657e-01     0.00000000e+00    
           5.07562995e-01     5.09811342e-01     0.00000000e+00    
           5.08275390e-01     5.08091509e-01     0.00000000e+00    
           5.09408593e-01     5.06614625e-01     0.00000000e+00    
           5.10885477e-01     5.05481362e-01     0.00000000e+00    
           5.12605369e-01     5.04768968e-01     0.00000000e+00    
           5.14451027e-01     5.04526019e-01     0.00000000e+00    
           5.16296625e-01     5.04768968e-01     0.00000000e+00    
           5.18016517e-01     5.05481362e-01     0.00000000e+00    
           5.19493401e-01     5.06614625e-01     0.00000000e+00    
           5.20626605e-01     5.08091509e-01     0.00000000e+00    
           5.21338999e-01     5.09811342e-01     0.00000000e+00    
           5.14451027e-01     5.11657000e-01     0.00000000e+00    
           4.65243995e-01     5.16254604e-01     0.00000000e+00    
           4.65243995e-01     5.14134228e-01     0.00000000e+00    
           4.65243995e-01     5.08695781e-01     0.00000000e+00    
           4.65243995e-01     5.06575406e-01     0.00000000e+00    
           4.66931671e-01     5.04409373e-01     0.00000000e+00    
           4.68693614e-01     5.04328012e-01     0.00000000e+00    
           4.70421344e-01     5.04682958e-01     0.00000000e+00    
           4.72008497e-01     5.05452335e-01     0.00000000e+00    
           4.73357379e-01     5.06588817e-01     0.00000000e+00    
           4.74384934e-01     5.08022368e-01     0.00000000e+00    
           4.75027919e-01     5.09664834e-01     0.00000000e+00    
           4.75028187e-01     5.13165236e-01     0.00000000e+00    
           4.74385172e-01     5.14807761e-01     0.00000000e+00    
           4.73357558e-01     5.16241372e-01     0.00000000e+00    
           4.72008646e-01     5.17377913e-01     0.00000000e+00    
           4.70421433e-01     5.18147290e-01     0.00000000e+00    
           4.68693614e-01     5.18502235e-01     0.00000000e+00    
           4.66931641e-01     5.18420875e-01     0.00000000e+00    
           5.33852994e-01     5.06575406e-01     0.00000000e+00    
           5.33852994e-01     5.08695781e-01     0.00000000e+00    
           5.33852994e-01     5.14134228e-01     0.00000000e+00    
           5.33852994e-01     5.16254604e-01     0.00000000e+00    
           5.32303810e-01     5.16964078e-01     0.00000000e+00    
           5.31043947e-01     5.15658796e-01     0.00000000e+00    
           5.30155540e-01     5.14077127e-01     0.00000000e+00    
           5.29696345e-01     5.12322068e-01     0.00000000e+00    
           5.29696345e-01     5.10507941e-01     0.00000000e+00    
           5.30155540e-01     5.08752882e-01     0.00000000e+00    
           5.31043947e-01     5.07171214e-01     0.00000000e+00    
           5.32303810e-01     5.05865932e-01     0.00000000e+00    
           4.81947482e-01     5.34618974e-01     0.00000000e+00    
           4.79541332e-01     5.34618974e-01     0.00000000e+00    
           4.73223150e-01     5.34618974e-01     0.00000000e+00    
           4.70817327e-01     5.34618974e-01     0.00000000e+00    
           4.68517244e-01     5.32760799e-01     0.00000000e+00    
[...]
      <PointData>
        <DataArray type="Float32" Name="Displacement" NumberOfComponents="3">
           7.22948811e-04     3.22143926e-04     0.00000000e+00    
           7.07358762e-04     3.74313677e-04     0.00000000e+00    
           7.23219826e-04     3.62264487e-04     0.00000000e+00    
           7.10059481e-04     3.33209842e-04     0.00000000e+00    
           3.27786198e-04     3.37605190e-04     0.00000000e+00    
           2.94850528e-04     3.20812193e-04     0.00000000e+00    
           2.68432283e-04     3.08628514e-04     0.00000000e+00    
           3.15440673e-04     3.02390166e-04     0.00000000e+00    
           7.68432277e-04     3.08628514e-04     0.00000000e+00    
           7.94850523e-04     3.20812193e-04     0.00000000e+00    
           8.27786222e-04     3.37605190e-04     0.00000000e+00    
           5.75646351e-04     4.50013758e-04     0.00000000e+00    
           5.67179930e-04     4.92207939e-04     0.00000000e+00    
           5.58284693e-04     5.30848687e-04     0.00000000e+00    
           4.97025438e-04     4.75524605e-04     0.00000000e+00    
           5.82846696e-05     3.08486669e-05     0.00000000e+00    
           6.71799498e-05    -7.79204311e-06     0.00000000e+00    
           7.56463196e-05    -4.99862545e-05     0.00000000e+00    
           6.61247526e-04     4.08965978e-04     0.00000000e+00    
           6.54741249e-04     4.25276376e-04     0.00000000e+00    
           6.48652669e-04     4.44864563e-04     0.00000000e+00    
           5.96692669e-04     4.09631961e-04     0.00000000e+00    
           1.48652689e-04    -5.51354242e-05     0.00000000e+00    
           1.54741239e-04    -7.47236118e-05     0.00000000e+00    
           1.61247517e-04    -9.10340241e-05     0.00000000e+00    
           5.67450654e-04     8.99422230e-05     0.00000000e+00    
           5.41479734e-04     1.59113566e-04     0.00000000e+00    
           5.56988933e-04     1.43350626e-04     0.00000000e+00    
           5.44818409e-04     1.05652281e-04     0.00000000e+00    
           8.52223136e-04     4.02885780e-04     0.00000000e+00    
           8.84901150e-04     4.15145216e-04     0.00000000e+00    
           9.14615579e-04     4.23226244e-04     0.00000000e+00    
           8.62385146e-04     4.83835989e-04     0.00000000e+00    
           4.14615584e-04     4.23226244e-04     0.00000000e+00    
           3.84901126e-04     4.15145216e-04     0.00000000e+00    
           3.52223142e-04     4.02885780e-04     0.00000000e+00    
           4.85342636e-04     3.47921916e-04     0.00000000e+00    
           4.61348245e-04     4.16992116e-04     0.00000000e+00    
           4.80735471e-04     4.03249403e-04     0.00000000e+00    
           4.69420251e-04     3.67337634e-04     0.00000000e+00    
           8.01335846e-04     4.50476917e-04     0.00000000e+00    
           7.74648448e-04     4.56525246e-04     0.00000000e+00    
           7.92733452e-04     4.58066061e-04     0.00000000e+00    
           7.85420649e-04     4.49215237e-04     0.00000000e+00    
           4.15355200e-04     1.76069909e-04     0.00000000e+00    
           3.75001400e-04     1.68458617e-04     0.00000000e+00    
           4.06945474e-04     1.79179639e-04     0.00000000e+00    
           3.85044492e-04     1.70975240e-04     0.00000000e+00    
           1.80332529e-04     1.29290594e-04     0.00000000e+00    
           1.50617649e-04     1.21898876e-04     0.00000000e+00    
           1.26832019e-04     1.17552343e-04     0.00000000e+00    
           1.86548568e-04     6.98352596e-05     0.00000000e+00    
           1.78072674e-04     1.06836080e-04     0.00000000e+00    
           1.53498768e-04     9.04312255e-05     0.00000000e+00    
           6.26832014e-04     1.17552343e-04     0.00000000e+00    
           6.50617643e-04     1.21898876e-04     0.00000000e+00    
           6.80332538e-04     1.29290594e-04     0.00000000e+00    
           3.07888258e-04     2.26619944e-04     0.00000000e+00    
           2.83001253e-04     2.48886092e-04     0.00000000e+00    
           2.99034582e-04     2.41642192e-04     0.00000000e+00    
           2.87021801e-04     2.27697965e-04     0.00000000e+00    
           2.81888933e-04     9.11784227e-05     0.00000000e+00    
           2.36111038e-04     9.64804567e-05     0.00000000e+00    
           2.69930344e-04     9.33325791e-05     0.00000000e+00    
           2.47715245e-04     8.85193876e-05     0.00000000e+00    
           4.69686347e-04     2.15334760e-04     0.00000000e+00    
           4.41794284e-04     2.46049778e-04     0.00000000e+00    
           4.65874327e-04     2.35305866e-04     0.00000000e+00    
           4.51227708e-04     2.19540991e-04     0.00000000e+00    
           7.09441490e-04     2.58997694e-04     0.00000000e+00    
           6.86971005e-04     3.09559313e-04     0.00000000e+00    
           7.06701190e-04     2.74588587e-04     0.00000000e+00    
           6.88720786e-04     2.91107222e-04     0.00000000e+00    
           4.12820402e-04     2.44295370e-04     0.00000000e+00    
           3.79006873e-04     2.72985664e-04     0.00000000e+00    
           3.99704004e-04     2.68355769e-04     0.00000000e+00    
           3.89509427e-04     2.54293962e-04     0.00000000e+00    
           5.79929794e-04     2.12715182e-04     0.00000000e+00    
           5.51130215e-04     2.49164848e-04     0.00000000e+00    
           5.80171181e-04     2.47087301e-04     0.00000000e+00    
           5.62607602e-04     2.25594646e-04     0.00000000e+00    
           5.00000024e-04     5.00000024e-04     0.00000000e+00    
           0.00000000e+00     0.00000000e+00     0.00000000e+00    
           5.00000024e-04     0.00000000e+00     0.00000000e+00    
           1.00000005e-03     5.00000024e-04     0.00000000e+00    
           7.31352600e-04     3.27065063e-04     0.00000000e+00    
           7.39674550e-04     3.33272124e-04     0.00000000e+00    
           7.46133679e-04     3.40115017e-04     0.00000000e+00    
           7.49865256e-04     3.46569403e-04     0.00000000e+00    
           7.50947918e-04     3.53851530e-04     0.00000000e+00    
           7.49726431e-04     3.61474580e-04     0.00000000e+00    
           7.47124082e-04     3.68057314e-04     0.00000000e+00    
           7.42367876e-04     3.72371927e-04     0.00000000e+00    
           7.35086971e-04     3.75152187e-04     0.00000000e+00    
           7.26488186e-04     3.76375276e-04     0.00000000e+00    
           7.17159710e-04     3.76252574e-04     0.00000000e+00    
           6.97627198e-04     3.70093359e-04     0.00000000e+00    
           6.88802626e-04     3.64451815e-04     0.00000000e+00    
           6.81903271e-04     3.57952435e-04     0.00000000e+00    
           6.77753647e-04     3.51677358e-04     0.00000000e+00    
           6.77348697e-04     3.45257722e-04     0.00000000e+00    
           6.80252619e-04     3.38898855e-04     0.00000000e+00    
           6.85180130e-04     3.32267402e-04     0.00000000e+00    
           6.92695554e-04     3.25085799e-04     0.00000000e+00    
           7.03118509e-04     3.17650440e-04     0.00000000e+00    
           7.08924548e-04     3.17390542e-04     0.00000000e+00    
           7.14714290e-04     3.19094892e-04     0.00000000e+00    
           7.16015464e-04     3.48097325e-04     0.00000000e+00    
           3.19734361e-04     3.33785400e-04     0.00000000e+00    
           3.09414987e-04     3.28419788e-04     0.00000000e+00    
           2.79692205e-04     3.13906930e-04     0.00000000e+00    
           2.70583929e-04     3.10328789e-04     0.00000000e+00    
           2.73174170e-04     3.07223847e-04     0.00000000e+00    
           2.77208514e-04     3.05130030e-04     0.00000000e+00    
           2.80799344e-04     3.02121771e-04     0.00000000e+00    
           2.85572518e-04     3.00027808e-04     0.00000000e+00    
           2.91247183e-04     2.99092033e-04     0.00000000e+00    
           2.98527972e-04     2.98853760e-04     0.00000000e+00    
           3.06498230e-04     3.00104119e-04     0.00000000e+00    
           3.23476677e-04     3.05258058e-04     0.00000000e+00    
           3.28811759e-04     3.07849405e-04     0.00000000e+00    
           3.31883493e-04     3.11042299e-04     0.00000000e+00    
           3.33477568e-04     3.15033627e-04     0.00000000e+00    
           3.34402168e-04     3.19912186e-04     0.00000000e+00    
           3.33869742e-04     3.25126195e-04     0.00000000e+00    
           3.31510528e-04     3.30830051e-04     0.00000000e+00    
           7.70583923e-04     3.10328789e-04     0.00000000e+00    
           7.79692200e-04     3.13906930e-04     0.00000000e+00    
           8.09415011e-04     3.28419788e-04     0.00000000e+00    
           8.19734356e-04     3.33785400e-04     0.00000000e+00    
           8.22165341e-04     3.43118008e-04     0.00000000e+00    
           8.15346371e-04     3.44460947e-04     0.00000000e+00    
           8.06946715e-04     3.42665735e-04     0.00000000e+00    
           7.97104381e-04     3.39439342e-04     0.00000000e+00    
           7.86025601e-04     3.33656499e-04     0.00000000e+00    
           7.73674052e-04     3.24625871e-04     0.00000000e+00    
           7.60823314e-04     3.11692915e-04     0.00000000e+00    
           7.62990676e-04     3.07570357e-04     0.00000000e+00    
           5.73860947e-04     4.60992800e-04     0.00000000e+00    
           5.71175769e-04     4.74787812e-04     0.00000000e+00    
           5.63157140e-04     5.09103702e-04     0.00000000e+00    
           5.60326444e-04     5.21405949e-04     0.00000000e+00    
           5.43517759e-04     5.29165613e-04     0.00000000e+00    
           5.29235054e-04     5.25091717e-04     0.00000000e+00    
           5.16830711e-04     5.19752211e-04     0.00000000e+00    
           5.07643213e-04     5.13252569e-04     0.00000000e+00    
           5.01395843e-04     5.05030679e-04     0.00000000e+00    
           4.97411180e-04     4.95597196e-04     0.00000000e+00    
           4.95852437e-04     4.85532568e-04     0.00000000e+00    
           5.01396658e-04     4.65002959e-04     0.00000000e+00    
           5.07778430e-04     4.55288478e-04     0.00000000e+00    
           5.15956024e-04     4.48162871e-04     0.00000000e+00    
           5.26366639e-04     4.43586294e-04     0.00000000e+00    
           5.38759225e-04     4.41260607e-04     0.00000000e+00    
           5.51333011e-04     4.41306503e-04     0.00000000e+00    
           5.63753478e-04     4.43948695e-04     0.00000000e+00    
           6.03264525e-05     2.14059364e-05     0.00000000e+00    
           6.31571384e-05     9.10368999e-06     0.00000000e+00    
           7.11757821e-05    -2.52121863e-05     0.00000000e+00    
           7.38609233e-05    -3.90072055e-05     0.00000000e+00    
           8.67892159e-05    -4.14836322e-05     0.00000000e+00    
           9.60554826e-05    -3.11422045e-05     0.00000000e+00    
           1.02123762e-04    -2.05521628e-05     0.00000000e+00    
           1.04251070e-04    -1.01279984e-05     0.00000000e+00    
           1.02846061e-04     1.15893420e-06     0.00000000e+00    
           9.90184781e-05     1.22256033e-05     0.00000000e+00    
           9.26228095e-05     2.10110829e-05     0.00000000e+00    
           8.33493104e-05     2.63740658e-05     0.00000000e+00    
           7.14418420e-05     2.96575217e-05     0.00000000e+00    
           6.58551347e-04     4.15594957e-04     0.00000000e+00    
           6.51214970e-04     4.36200498e-04     0.00000000e+00    
           6.39562204e-04     4.46665188e-04     0.00000000e+00    
           6.29874121e-04     4.46645194e-04     0.00000000e+00    
           6.20132661e-04     4.44677251e-04     0.00000000e+00    
           6.10292191e-04     4.40075120e-04     0.00000000e+00    
           5.99583203e-04     4.31761757e-04     0.00000000e+00    
           5.90895070e-04     4.21718054e-04     0.00000000e+00    
           5.88479917e-04     4.14978043e-04     0.00000000e+00    
           5.91453223e-04     4.12195077e-04     0.00000000e+00    
           6.02716813e-04     4.06140025e-04     0.00000000e+00    
           6.09948416e-04     4.02725884e-04     0.00000000e+00    
           6.18820486e-04     4.00099205e-04     0.00000000e+00    
           6.28520967e-04     3.98337201e-04     0.00000000e+00    
           6.37668476e-04     3.97461728e-04     0.00000000e+00    
           6.45246473e-04     3.97863274e-04     0.00000000e+00    
           6.51103212e-04     3.99684999e-04     0.00000000e+00    
           6.56382123e-04     4.03606391e-04     0.00000000e+00    
           1.51214961e-04    -6.37995181e-05     0.00000000e+00    
           1.58551353e-04    -8.44050446e-05     0.00000000e+00    
           1.64840720e-04    -8.45673203e-05     0.00000000e+00    
           1.66595826e-04    -7.76830493e-05     0.00000000e+00    
           1.66020880e-04    -7.09215019e-05     0.00000000e+00    
           1.62625540e-04    -6.44155589e-05     0.00000000e+00    
           1.56826092e-04    -5.89790870e-05     0.00000000e+00    
           5.81558212e-04     9.52614064e-05     0.00000000e+00    
           5.87619608e-04     1.00389043e-04     0.00000000e+00    
           5.89327130e-04     1.05485167e-04     0.00000000e+00    
           5.90251177e-04     1.13370654e-04     0.00000000e+00    
           5.89878240e-04     1.23361591e-04     0.00000000e+00    
           5.87495684e-04     1.34591552e-04     0.00000000e+00    
           5.82697685e-04     1.47093800e-04     0.00000000e+00    
           5.76490944e-04     1.56677284e-04     0.00000000e+00    
           5.70195203e-04     1.60862517e-04     0.00000000e+00    
           5.61982219e-04     1.61966353e-04     0.00000000e+00    
           5.51996985e-04     1.61696633e-04     0.00000000e+00    
           5.30828838e-04     1.54738067e-04     0.00000000e+00    
           5.21158625e-04     1.48178733e-04     0.00000000e+00    
           5.13108331e-04     1.40111864e-04     0.00000000e+00    
           5.07579127e-04     1.30563887e-04     0.00000000e+00    
           5.05081494e-04     1.19924167e-04     0.00000000e+00    
           5.05332719e-04     1.08841217e-04     0.00000000e+00    
           5.08584140e-04     9.94114525e-05     0.00000000e+00    
           5.15154155e-04     9.24854176e-05     0.00000000e+00    
           5.24726580e-04     8.81958840e-05     0.00000000e+00    
           5.36673586e-04     8.59724532e-05     0.00000000e+00    
           5.50954777e-04     8.62301604e-05     0.00000000e+00    
           5.51499776e-04     1.23957900e-04     0.00000000e+00    
           8.66319984e-04     4.08647204e-04     0.00000000e+00    
           9.02534928e-04     4.20343218e-04     0.00000000e+00    
           9.19776678e-04     4.31709836e-04     0.00000000e+00    
           9.22820938e-04     4.42118064e-04     0.00000000e+00    
           9.23711632e-04     4.54203167e-04     0.00000000e+00    
           9.21899627e-04     4.65831050e-04     0.00000000e+00    
           9.16979974e-04     4.75271052e-04     0.00000000e+00    
           9.08276357e-04     4.81574301e-04     0.00000000e+00    
           8.97146994e-04     4.84615361e-04     0.00000000e+00    
           8.84940149e-04     4.86088538e-04     0.00000000e+00    
           8.72757111e-04     4.85857629e-04     0.00000000e+00    
           8.52876750e-04     4.79455339e-04     0.00000000e+00    
           8.43131333e-04     4.72892774e-04     0.00000000e+00    
           8.34793085e-04     4.65016579e-04     0.00000000e+00    
           8.29181925e-04     4.57052345e-04     0.00000000e+00    
           8.26435396e-04     4.48357459e-04     0.00000000e+00    
           8.26467527e-04     4.38516843e-04     0.00000000e+00    
           8.29052646e-04     4.27394931e-04     0.00000000e+00    
           8.34178994e-04     4.15218790e-04     0.00000000e+00    
           8.42128240e-04     4.06574167e-04     0.00000000e+00    
           4.02534904e-04     4.20343218e-04     0.00000000e+00    
           3.66320019e-04     4.08647204e-04     0.00000000e+00    
           3.63226631e-04     4.02579200e-04     0.00000000e+00    
           3.75150586e-04     4.03936079e-04     0.00000000e+00    
           3.87342036e-04     4.07190237e-04     0.00000000e+00    
           3.98534175e-04     4.12182388e-04     0.00000000e+00    
           4.07797255e-04     4.17423958e-04     0.00000000e+00    
           4.97791450e-04     3.52611591e-04     0.00000000e+00    
           5.10605343e-04     3.60918086e-04     0.00000000e+00    
           5.22752118e-04     3.71593866e-04     0.00000000e+00    
           5.29186800e-04     3.81547783e-04     0.00000000e+00    
           5.29371959e-04     3.87634587e-04     0.00000000e+00    
           5.25522861e-04     3.93304275e-04     0.00000000e+00    
           5.20936213e-04     4.00308927e-04     0.00000000e+00    
           5.15109044e-04     4.08564432e-04     0.00000000e+00    
           5.07562654e-04     4.15283954e-04     0.00000000e+00    
           4.98458394e-04     4.19642631e-04     0.00000000e+00    
           4.86773322e-04     4.21060802e-04     0.00000000e+00    
           4.74259985e-04     4.19723539e-04     0.00000000e+00    
           4.49568557e-04     4.12511290e-04     0.00000000e+00    
           4.41548618e-04     4.07848245e-04     0.00000000e+00    
           4.36520611e-04     4.02922335e-04     0.00000000e+00    
           4.33255220e-04     3.95673327e-04     0.00000000e+00    
           4.31579479e-04     3.86817730e-04     0.00000000e+00    
           4.31781868e-04     3.76550364e-04     0.00000000e+00    
           4.33515524e-04     3.66295630e-04     0.00000000e+00    
           4.36955277e-04     3.58619989e-04     0.00000000e+00    
           4.43110883e-04     3.53414682e-04     0.00000000e+00    
           4.51497763e-04     3.49626323e-04     0.00000000e+00    
           4.61685355e-04     3.47142486e-04     0.00000000e+00    
           4.73235734e-04     3.46326968e-04     0.00000000e+00    
           4.76104789e-04     3.86372849e-04     0.00000000e+00    
           8.02666240e-04     4.52992070e-04     0.00000000e+00    
           8.03747040e-04     4.55992878e-04     0.00000000e+00    
           8.04092444e-04     4.58606490e-04     0.00000000e+00    
           8.03114963e-04     4.60395706e-04     0.00000000e+00    
           8.00506969e-04     4.61515941e-04     0.00000000e+00    
           7.96788081e-04     4.62068798e-04     0.00000000e+00    
           7.92088918e-04     4.61915508e-04     0.00000000e+00    
           7.86836492e-04     4.60907468e-04     0.00000000e+00    
           7.81165843e-04     4.59462521e-04     0.00000000e+00    
           7.76642002e-04     4.57623770e-04     0.00000000e+00    
           7.74788088e-04     4.55784611e-04     0.00000000e+00    
           7.75155029e-04     4.54242982e-04     0.00000000e+00    
           7.75705266e-04     4.52219043e-04     0.00000000e+00    
           7.76607776e-04     4.49647050e-04     0.00000000e+00    
           7.78081361e-04     4.46304213e-04     0.00000000e+00    
           7.80172588e-04     4.42699209e-04     0.00000000e+00    
           7.83374009e-04     4.41243377e-04     0.00000000e+00    
           7.88247155e-04     4.42500401e-04     0.00000000e+00    
           7.93027168e-04     4.45429207e-04     0.00000000e+00    
           7.97919638e-04     4.48297651e-04     0.00000000e+00    
           7.89077429e-04     4.53967077e-04     0.00000000e+00    
           4.20960248e-04     1.79285853e-04     0.00000000e+00    
           4.21009201e-04     1.79615410e-04     0.00000000e+00    