<?xml version="1.0"?>
<VTKFile type="UnstructuredGrid" version="0.1">
  <UnstructuredGrid>
    <Piece NumberOfPoints="1636" NumberOfCells="3138">
      <Points>
        <DataArray type="Float32" NumberOfComponents="3">
           5.21582007e-01     5.11657000e-01     0.00000000e+00    
           5.07319987e-01     5.11657000e-01     0.00000000e+00    
           5.11602998e-01     5.13803005e-01     0.00000000e+00    
           5.17298996e-01     5.09510994e-01     0.00000000e+00    
           4.65243995e-01     5.17907977e-01     0.00000000e+00    
           4.65243995e-01     5.11415005e-01     0.00000000e+00    
           4.65243995e-01     5.04921973e-01     0.00000000e+00    
           4.75246996e-01     5.11415005e-01     0.00000000e+00    
           5.33852994e-01     5.04921973e-01     0.00000000e+00    
           5.33852994e-01     5.11415005e-01     0.00000000e+00    
           5.33852994e-01     5.17907977e-01     0.00000000e+00    
           4.83779997e-01     5.34618974e-01     0.00000000e+00    
           4.76381987e-01     5.34618974e-01     0.00000000e+00    
           4.68984991e-01     5.34618974e-01     0.00000000e+00    
           4.76381987e-01     5.23841977e-01     0.00000000e+00    
           4.68984991e-01     4.66010004e-01     0.00000000e+00    
           4.76381987e-01     4.66010004e-01     0.00000000e+00    
           4.83779997e-01     4.66010004e-01     0.00000000e+00    
           4.99920011e-01     5.34618974e-01     0.00000000e+00    
           4.94562000e-01     5.34618974e-01     0.00000000e+00    
           4.89203990e-01     5.34618974e-01     0.00000000e+00    
           4.94562000e-01     5.22280991e-01     0.00000000e+00    
           4.89203990e-01     4.66010004e-01     0.00000000e+00    
           4.94562000e-01     4.66010004e-01     0.00000000e+00    
           4.99920011e-01     4.66010004e-01     0.00000000e+00    
           5.32517016e-01     4.74112004e-01     0.00000000e+00    
           5.17961025e-01     4.74112004e-01     0.00000000e+00    
           5.22153020e-01     4.76040006e-01     0.00000000e+00    
           5.28325021e-01     4.72182989e-01     0.00000000e+00    
           5.33852994e-01     5.19801974e-01     0.00000000e+00    
           5.33852994e-01     5.24702013e-01     0.00000000e+00    
           5.33852994e-01     5.29603004e-01     0.00000000e+00    
           5.19536972e-01     5.24702013e-01     0.00000000e+00    
           4.65243995e-01     5.29603004e-01     0.00000000e+00    
           4.65243995e-01     5.24702013e-01     0.00000000e+00    
           4.65243995e-01     5.19801974e-01     0.00000000e+00    
           4.92487997e-01     5.17117977e-01     0.00000000e+00    
           4.76904988e-01     5.17117977e-01     0.00000000e+00    
           4.81225997e-01     5.18886983e-01     0.00000000e+00    
           4.88168001e-01     5.15349984e-01     0.00000000e+00    
           5.17996013e-01     5.27033985e-01     0.00000000e+00    
           5.04473984e-01     5.27033985e-01     0.00000000e+00    
           5.10882020e-01     5.30395985e-01     0.00000000e+00    
           5.11587977e-01     5.23671985e-01     0.00000000e+00    
           5.08446991e-01     4.83435005e-01     0.00000000e+00    
           4.94414002e-01     4.83435005e-01     0.00000000e+00    
           5.03341019e-01     4.86377001e-01     0.00000000e+00    
           4.99518991e-01     4.80491996e-01     0.00000000e+00    
           4.65243995e-01     4.83101994e-01     0.00000000e+00    
           4.65243995e-01     4.78758007e-01     0.00000000e+00    
           4.65243995e-01     4.74415004e-01     0.00000000e+00    
           4.78336990e-01     4.78758007e-01     0.00000000e+00    
           4.69897985e-01     4.81519997e-01     0.00000000e+00    
           4.72241998e-01     4.75997001e-01     0.00000000e+00    
           5.33852994e-01     4.74415004e-01     0.00000000e+00    
           5.33852994e-01     4.78758007e-01     0.00000000e+00    
           5.33852994e-01     4.83101994e-01     0.00000000e+00    
           4.80668008e-01     4.95810986e-01     0.00000000e+00    
           4.66084987e-01     4.95810986e-01     0.00000000e+00    
           4.72070009e-01     4.99215007e-01     0.00000000e+00    
           4.74682987e-01     4.92406994e-01     0.00000000e+00    
           4.93930012e-01     4.79214013e-01     0.00000000e+00    
           4.78967011e-01     4.79214013e-01     0.00000000e+00    
           4.87289995e-01     4.82858986e-01     0.00000000e+00    
           4.85606998e-01     4.75569010e-01     0.00000000e+00    
           5.09284973e-01     4.97658014e-01     0.00000000e+00    
           4.95503992e-01     4.97658014e-01     0.00000000e+00    
           5.00939012e-01     5.00781000e-01     0.00000000e+00    
           5.03850996e-01     4.94536012e-01     0.00000000e+00    
           5.33011973e-01     5.01751006e-01     0.00000000e+00    
           5.17829001e-01     5.01751006e-01     0.00000000e+00    
           5.29196024e-01     5.02147973e-01     0.00000000e+00    
           5.21646023e-01     5.01353979e-01     0.00000000e+00    
           4.95451003e-01     5.00564992e-01     0.00000000e+00    
           4.80922014e-01     5.00564992e-01     0.00000000e+00    
           4.86593992e-01     5.03829002e-01     0.00000000e+00    
           4.89778996e-01     4.97299999e-01     0.00000000e+00    
           5.25367022e-01     4.88312006e-01     0.00000000e+00    
           5.09521008e-01     4.88312006e-01     0.00000000e+00    
           5.15170991e-01     4.91557002e-01     0.00000000e+00    
           5.19716024e-01     4.85067010e-01     0.00000000e+00    
           4.65243995e-01     5.34618974e-01     0.00000000e+00    
           4.65243995e-01     4.66010004e-01     0.00000000e+00    
           5.33852994e-01     4.66010004e-01     0.00000000e+00    
           5.33852994e-01     5.34618974e-01     0.00000000e+00    
           5.21338999e-01     5.13502657e-01     0.00000000e+00    
           5.20626605e-01     5.15222490e-01     0.00000000e+00    
           5.19493401e-01     5.16699374e-01     0.00000000e+00    
           5.18016517e-01     5.17832637e-01     0.00000000e+00    
           5.16296625e-01     5.18545032e-01     0.00000000e+00    
           5.14451027e-01     5.18787980e-01     0.00000000e+00    
           5.12605369e-01     5.18545032e-01     0.00000000e+00    
           5.10885477e-01     5.17832637e-01     0.00000000e+00    
           5.09408593e-01     5.16699374e-01     0.00000000e+00    
           5.08275390e-01     5.15222490e-01     0.00000000e+00    
           5.07562995e-01     5.13502657e-01     0.00000000e+00    
           5.07562995e-01     5.09811342e-01     0.00000000e+00    
           5.08275390e-01     5.08091509e-01     0.00000000e+00    
           5.09408593e-01     5.06614625e-01     0.00000000e+00    
           5.10885477e-01     5.05481362e-01     0.00000000e+00    
           5.12605369e-01     5.04768968e-01     0.00000000e+00    
           5.14451027e-01     5.04526019e-01     0.00000000e+00    
           5.16296625e-01     5.04768968e-01     0.00000000e+00    
           5.18016517e-01     5.05481362e-01     0.00000000e+00    
           5.19493401e-01     5.06614625e-01     0.00000000e+00    
           5.20626605e-01     5.08091509e-01     0.00000000e+00    
           5.21338999e-01     5.09811342e-01     0.00000000e+00    
           5.14451027e-01     5.11657000e-01     0.00000000e+00    
           4.65243995e-01     5.16254604e-01     0.00000000e+00    
           4.65243995e-01     5.14134228e-01     0.00000000e+00    
           4.65243995e-01     5.08695781e-01     0.00000000e+00    
           4.65243995e-01     5.06575406e-01     0.00000000e+00    
           4.66931671e-01     5.04409373e-01     0.00000000e+00    
           4.68693614e-01     5.04328012e-01     0.00000000e+00    
           4.70421344e-01     5.04682958e-01     0.00000000e+00    
           4.72008497e-01     5.05452335e-01     0.00000000e+00    
           4.73357379e-01     5.06588817e-01     0.00000000e+00    
           4.74384934e-01     5.08022368e-01     0.00000000e+00    
           4.75027919e-01     5.09664834e-01     0.00000000e+00    
           4.75028187e-01     5.13165236e-01     0.00000000e+00    
           4.74385172e-01     5.14807761e-01     0.00000000e+00    
           4.73357558e-01     5.16241372e-01     0.00000000e+00    
           4.72008646e-01     5.17377913e-01     0.00000000e+00    
           4.70421433e-01     5.18147290e-01     0.00000000e+00    
           4.68693614e-01     5.18502235e-01     0.00000000e+00    
           4.66931641e-01     5.18420875e-01     0.00000000e+00    
           5.33852994e-01     5.06575406e-01     0.00000000e+00    
           5.33852994e-01     5.08695781e-01     0.00000000e+00    
           5.33852994e-01     5.14134228e-01     0.00000000e+00    
           5.33852994e-01     5.16254604e-01     0.00000000e+00    
           5.32303810e-01     5.16964078e-01     0.00000000e+00    
           5.31043947e-01     5.15658796e-01     0.00000000e+00    
           5.30155540e-01     5.14077127e-01     0.00000000e+00    
           5.29696345e-01     5.12322068e-01     0.00000000e+00    
           5.29696345e-01     5.10507941e-01     0.00000000e+00    
           5.30155540e-01     5.08752882e-01     0.00000000e+00    
           5.31043947e-01     5.07171214e-01     0.00000000e+00    
           5.32303810e-01     5.05865932e-01     0.00000000e+00    
           4.81947482e-01     5.34618974e-01     0.00000000e+00    
           4.79541332e-01     5.34618974e-01     0.00000000e+00    
           4.73223150e-01     5.34618974e-01     0.00000000e+00    
           4.70817327e-01     5.34618974e-01     0.00000000e+00    
           4.68517244e-01     5.32760799e-01     0.00000000e+00    
[...]
      <PointData>
        <DataArray type="Float32" Name="Displacement" NumberOfComponents="3">
           3.61474406e-04     1.61071963e-04     0.00000000e+00    
           3.53679381e-04     1.87156838e-04     0.00000000e+00    
           3.61609913e-04     1.81132244e-04     0.00000000e+00    
           3.55029741e-04     1.66604921e-04     0.00000000e+00    
           1.63893099e-04     1.68802595e-04     0.00000000e+00    
           1.47425264e-04     1.60406096e-04     0.00000000e+00    
           1.34216141e-04     1.54314257e-04     0.00000000e+00    
           1.57720337e-04     1.51195083e-04     0.00000000e+00    
           3.84216139e-04     1.54314257e-04     0.00000000e+00    
           3.97425261e-04     1.60406096e-04     0.00000000e+00    
           4.13893111e-04     1.68802595e-04     0.00000000e+00    
           2.87823175e-04     2.25006879e-04     0.00000000e+00    
           2.83589965e-04     2.46103969e-04     0.00000000e+00    
           2.79142347e-04     2.65424344e-04     0.00000000e+00    
           2.48512719e-04     2.37762302e-04     0.00000000e+00    
           2.91423348e-05     1.54243335e-05     0.00000000e+00    
           3.35899749e-05    -3.89602155e-06     0.00000000e+00    
           3.78231598e-05    -2.49931272e-05     0.00000000e+00    
           3.30623763e-04     2.04482989e-04     0.00000000e+00    
           3.27370624e-04     2.12638188e-04     0.00000000e+00    
           3.24326335e-04     2.22432282e-04     0.00000000e+00    
           2.98346335e-04     2.04815980e-04     0.00000000e+00    
           7.43263445e-05    -2.75677121e-05     0.00000000e+00    
           7.73706197e-05    -3.73618059e-05     0.00000000e+00    
           8.06237585e-05    -4.55170120e-05     0.00000000e+00    
           2.83725327e-04     4.49711115e-05     0.00000000e+00    
           2.70739867e-04     7.95567830e-05     0.00000000e+00    
           2.78494466e-04     7.16753129e-05     0.00000000e+00    
           2.72409205e-04     5.28261407e-05     0.00000000e+00    
           4.26111568e-04     2.01442890e-04     0.00000000e+00    
           4.42450575e-04     2.07572608e-04     0.00000000e+00    
           4.57307789e-04     2.11613122e-04     0.00000000e+00    
           4.31192573e-04     2.41917995e-04     0.00000000e+00    
           2.07307792e-04     2.11613122e-04     0.00000000e+00    
           1.92450563e-04     2.07572608e-04     0.00000000e+00    
           1.76111571e-04     2.01442890e-04     0.00000000e+00    
           2.42671318e-04     1.73960958e-04     0.00000000e+00    
           2.30674123e-04     2.08496058e-04     0.00000000e+00    
           2.40367735e-04     2.01624702e-04     0.00000000e+00    
           2.34710125e-04     1.83668817e-04     0.00000000e+00    
           4.00667923e-04     2.25238458e-04     0.00000000e+00    
           3.87324224e-04     2.28262623e-04     0.00000000e+00    
           3.96366726e-04     2.29033030e-04     0.00000000e+00    
           3.92710324e-04     2.24607618e-04     0.00000000e+00    
           2.07677600e-04     8.80349544e-05     0.00000000e+00    
           1.87500700e-04     8.42293084e-05     0.00000000e+00    
           2.03472737e-04     8.95898193e-05     0.00000000e+00    
           1.92522246e-04     8.54876198e-05     0.00000000e+00    
           9.01662643e-05     6.46452972e-05     0.00000000e+00    
           7.53088243e-05     6.09494382e-05     0.00000000e+00    
           6.34160097e-05     5.87761715e-05     0.00000000e+00    
           9.32742842e-05     3.49176298e-05     0.00000000e+00    
           8.90363372e-05     5.34180399e-05     0.00000000e+00    
           7.67493839e-05     4.52156128e-05     0.00000000e+00    
           3.13416007e-04     5.87761715e-05     0.00000000e+00    
           3.25308822e-04     6.09494382e-05     0.00000000e+00    
           3.40166269e-04     6.46452972e-05     0.00000000e+00    
           1.53944129e-04     1.13309972e-04     0.00000000e+00    
           1.41500626e-04     1.24443046e-04     0.00000000e+00    
           1.49517291e-04     1.20821096e-04     0.00000000e+00    
           1.43510901e-04     1.13848982e-04     0.00000000e+00    
           1.40944467e-04     4.55892114e-05     0.00000000e+00    
           1.18055519e-04     4.82402284e-05     0.00000000e+00    
           1.34965172e-04     4.66662896e-05     0.00000000e+00    
           1.23857622e-04     4.42596938e-05     0.00000000e+00    
           2.34843174e-04     1.07667380e-04     0.00000000e+00    
           2.20897142e-04     1.23024889e-04     0.00000000e+00    
           2.32937164e-04     1.17652933e-04     0.00000000e+00    
           2.25613854e-04     1.09770495e-04     0.00000000e+00    
           3.54720745e-04     1.29498847e-04     0.00000000e+00    
           3.43485503e-04     1.54779656e-04     0.00000000e+00    
           3.53350595e-04     1.37294293e-04     0.00000000e+00    
           3.44360393e-04     1.45553611e-04     0.00000000e+00    
           2.06410201e-04     1.22147685e-04     0.00000000e+00    
           1.89503437e-04     1.36492832e-04     0.00000000e+00    
           1.99852002e-04     1.34177884e-04     0.00000000e+00    
           1.94754713e-04     1.27146981e-04     0.00000000e+00    
           2.89964897e-04     1.06357591e-04     0.00000000e+00    
           2.75565108e-04     1.24582424e-04     0.00000000e+00    
           2.90085591e-04     1.23543650e-04     0.00000000e+00    
           2.81303801e-04     1.12797323e-04     0.00000000e+00    
           2.50000012e-04     2.50000012e-04     0.00000000e+00    
           0.00000000e+00     0.00000000e+00     0.00000000e+00    
           2.50000012e-04     0.00000000e+00     0.00000000e+00    
           5.00000024e-04     2.50000012e-04     0.00000000e+00    
           3.65676300e-04     1.63532532e-04     0.00000000e+00    
           3.69837275e-04     1.66636062e-04     0.00000000e+00    
           3.73066840e-04     1.70057509e-04     0.00000000e+00    
           3.74932628e-04     1.73284701e-04     0.00000000e+00    
           3.75473959e-04     1.76925765e-04     0.00000000e+00    
           3.74863215e-04     1.80737290e-04     0.00000000e+00    
           3.73562041e-04     1.84028657e-04     0.00000000e+00    
           3.71183938e-04     1.86185964e-04     0.00000000e+00    
           3.67543485e-04     1.87576094e-04     0.00000000e+00    
           3.63244093e-04     1.88187638e-04     0.00000000e+00    
           3.58579855e-04     1.88126287e-04     0.00000000e+00    
           3.48813599e-04     1.85046680e-04     0.00000000e+00    
           3.44401313e-04     1.82225907e-04     0.00000000e+00    
           3.40951636e-04     1.78976217e-04     0.00000000e+00    
           3.38876824e-04     1.75838679e-04     0.00000000e+00    
           3.38674348e-04     1.72628861e-04     0.00000000e+00    
           3.40126309e-04     1.69449428e-04     0.00000000e+00    
           3.42590065e-04     1.66133701e-04     0.00000000e+00    
           3.46347777e-04     1.62542899e-04     0.00000000e+00    
           3.51559254e-04     1.58825220e-04     0.00000000e+00    
           3.54462274e-04     1.58695271e-04     0.00000000e+00    
           3.57357145e-04     1.59547446e-04     0.00000000e+00    
           3.58007732e-04     1.74048662e-04     0.00000000e+00    
           1.59867181e-04     1.66892700e-04     0.00000000e+00    
           1.54707493e-04     1.64209894e-04     0.00000000e+00    
           1.39846103e-04     1.56953465e-04     0.00000000e+00    
           1.35291964e-04     1.55164395e-04     0.00000000e+00    
           1.36587085e-04     1.53611923e-04     0.00000000e+00    
           1.38604257e-04     1.52565015e-04     0.00000000e+00    
           1.40399672e-04     1.51060885e-04     0.00000000e+00    
           1.42786259e-04     1.50013904e-04     0.00000000e+00    
           1.45623591e-04     1.49546016e-04     0.00000000e+00    
           1.49263986e-04     1.49426880e-04     0.00000000e+00    
           1.53249115e-04     1.50052059e-04     0.00000000e+00    
           1.61738339e-04     1.52629029e-04     0.00000000e+00    
           1.64405879e-04     1.53924702e-04     0.00000000e+00    
           1.65941747e-04     1.55521149e-04     0.00000000e+00    
           1.66738784e-04     1.57516813e-04     0.00000000e+00    
           1.67201084e-04     1.59956093e-04     0.00000000e+00    
           1.66934871e-04     1.62563098e-04     0.00000000e+00    
           1.65755264e-04     1.65415026e-04     0.00000000e+00    
           3.85291962e-04     1.55164395e-04     0.00000000e+00    
           3.89846100e-04     1.56953465e-04     0.00000000e+00    
           4.04707505e-04     1.64209894e-04     0.00000000e+00    
           4.09867178e-04     1.66892700e-04     0.00000000e+00    
           4.11082670e-04     1.71559004e-04     0.00000000e+00    
           4.07673186e-04     1.72230473e-04     0.00000000e+00    
           4.03473357e-04     1.71332867e-04     0.00000000e+00    
           3.98552191e-04     1.69719671e-04     0.00000000e+00    
           3.93012800e-04     1.66828249e-04     0.00000000e+00    
           3.86837026e-04     1.62312936e-04     0.00000000e+00    
           3.80411657e-04     1.55846457e-04     0.00000000e+00    
           3.81495338e-04     1.53785179e-04     0.00000000e+00    
           2.86930474e-04     2.30496400e-04     0.00000000e+00    
           2.85587885e-04     2.37393906e-04     0.00000000e+00    
           2.81578570e-04     2.54551851e-04     0.00000000e+00    
           2.80163222e-04     2.60702975e-04     0.00000000e+00    
           2.71758880e-04     2.64582806e-04     0.00000000e+00    
           2.64617527e-04     2.62545858e-04     0.00000000e+00    
           2.58415355e-04     2.59876106e-04     0.00000000e+00    
           2.53821607e-04     2.56626285e-04     0.00000000e+00    
           2.50697922e-04     2.52515340e-04     0.00000000e+00    
           2.48705590e-04     2.47798598e-04     0.00000000e+00    
           2.47926218e-04     2.42766284e-04     0.00000000e+00    
           2.50698329e-04     2.32501479e-04     0.00000000e+00    
           2.53889215e-04     2.27644239e-04     0.00000000e+00    
           2.57978012e-04     2.24081436e-04     0.00000000e+00    
           2.63183319e-04     2.21793147e-04     0.00000000e+00    
           2.69379612e-04     2.20630303e-04     0.00000000e+00    
           2.75666505e-04     2.20653252e-04     0.00000000e+00    
           2.81876739e-04     2.21974347e-04     0.00000000e+00    
           3.01632263e-05     1.07029682e-05     0.00000000e+00    
           3.15785692e-05     4.55184500e-06     0.00000000e+00    
           3.55878910e-05    -1.26060932e-05     0.00000000e+00    
           3.69304616e-05    -1.95036027e-05     0.00000000e+00    
           4.33946079e-05    -2.07418161e-05     0.00000000e+00    
           4.80277413e-05    -1.55711023e-05     0.00000000e+00    
           5.10618811e-05    -1.02760814e-05     0.00000000e+00    
           5.21255351e-05    -5.06399920e-06     0.00000000e+00    
           5.14230305e-05     5.79467098e-07     0.00000000e+00    
           4.95092390e-05     6.11280166e-06     0.00000000e+00    
           4.63114047e-05     1.05055415e-05     0.00000000e+00    
           4.16746552e-05     1.31870329e-05     0.00000000e+00    
           3.57209210e-05     1.48287609e-05     0.00000000e+00    
           3.29275674e-04     2.07797479e-04     0.00000000e+00    
           3.25607485e-04     2.18100249e-04     0.00000000e+00    
           3.19781102e-04     2.23332594e-04     0.00000000e+00    
           3.14937060e-04     2.23322597e-04     0.00000000e+00    
           3.10066331e-04     2.22338625e-04     0.00000000e+00    
           3.05146095e-04     2.20037560e-04     0.00000000e+00    
           2.99791602e-04     2.15880878e-04     0.00000000e+00    
           2.95447535e-04     2.10859027e-04     0.00000000e+00    
           2.94239959e-04     2.07489022e-04     0.00000000e+00    
           2.95726612e-04     2.06097538e-04     0.00000000e+00    
           3.01358406e-04     2.03070013e-04     0.00000000e+00    
           3.04974208e-04     2.01362942e-04     0.00000000e+00    
           3.09410243e-04     2.00049602e-04     0.00000000e+00    
           3.14260484e-04     1.99168600e-04     0.00000000e+00    
           3.18834238e-04     1.98730864e-04     0.00000000e+00    
           3.22623237e-04     1.98931637e-04     0.00000000e+00    
           3.25551606e-04     1.99842500e-04     0.00000000e+00    
           3.28191061e-04     2.01803196e-04     0.00000000e+00    
           7.56074805e-05    -3.18997591e-05     0.00000000e+00    
           7.92756764e-05    -4.22025223e-05     0.00000000e+00    
           8.24203598e-05    -4.22836602e-05     0.00000000e+00    
           8.32979131e-05    -3.88415247e-05     0.00000000e+00    
           8.30104400e-05    -3.54607510e-05     0.00000000e+00    
           8.13127699e-05    -3.22077794e-05     0.00000000e+00    
           7.84130461e-05    -2.94895435e-05     0.00000000e+00    
           2.90779106e-04     4.76307032e-05     0.00000000e+00    
           2.93809804e-04     5.01945215e-05     0.00000000e+00    
           2.94663565e-04     5.27425836e-05     0.00000000e+00    
           2.95125588e-04     5.66853269e-05     0.00000000e+00    
           2.94939120e-04     6.16807956e-05     0.00000000e+00    
           2.93747842e-04     6.72957758e-05     0.00000000e+00    
           2.91348842e-04     7.35469002e-05     0.00000000e+00    
           2.88245472e-04     7.83386422e-05     0.00000000e+00    
           2.85097602e-04     8.04312585e-05     0.00000000e+00    
           2.80991109e-04     8.09831763e-05     0.00000000e+00    
           2.75998493e-04     8.08483164e-05     0.00000000e+00    
           2.65414419e-04     7.73690335e-05     0.00000000e+00    
           2.60579312e-04     7.40893665e-05     0.00000000e+00    
           2.56554165e-04     7.00559322e-05     0.00000000e+00    
           2.53789563e-04     6.52819435e-05     0.00000000e+00    
           2.52540747e-04     5.99620835e-05     0.00000000e+00    
           2.52666359e-04     5.44206086e-05     0.00000000e+00    
           2.54292070e-04     4.97057263e-05     0.00000000e+00    
           2.57577078e-04     4.62427088e-05     0.00000000e+00    
           2.62363290e-04     4.40979420e-05     0.00000000e+00    
           2.68336793e-04     4.29862266e-05     0.00000000e+00    
           2.75477389e-04     4.31150802e-05     0.00000000e+00    
           2.75749888e-04     6.19789498e-05     0.00000000e+00    
           4.33159992e-04     2.04323602e-04     0.00000000e+00    
           4.51267464e-04     2.10171609e-04     0.00000000e+00    
           4.59888339e-04     2.15854918e-04     0.00000000e+00    
           4.61410469e-04     2.21059032e-04     0.00000000e+00    
           4.61855816e-04     2.27101584e-04     0.00000000e+00    
           4.60949814e-04     2.32915525e-04     0.00000000e+00    
           4.58489987e-04     2.37635526e-04     0.00000000e+00    
           4.54138179e-04     2.40787151e-04     0.00000000e+00    
           4.48573497e-04     2.42307680e-04     0.00000000e+00    
           4.42470075e-04     2.43044269e-04     0.00000000e+00    
           4.36378556e-04     2.42928814e-04     0.00000000e+00    
           4.26438375e-04     2.39727669e-04     0.00000000e+00    
           4.21565666e-04     2.36446387e-04     0.00000000e+00    
           4.17396543e-04     2.32508290e-04     0.00000000e+00    
           4.14590962e-04     2.28526173e-04     0.00000000e+00    
           4.13217698e-04     2.24178730e-04     0.00000000e+00    
           4.13233764e-04     2.19258422e-04     0.00000000e+00    
           4.14526323e-04     2.13697465e-04     0.00000000e+00    
           4.17089497e-04     2.07609395e-04     0.00000000e+00    
           4.21064120e-04     2.03287083e-04     0.00000000e+00    
           2.01267452e-04     2.10171609e-04     0.00000000e+00    
           1.83160009e-04     2.04323602e-04     0.00000000e+00    
           1.81613315e-04     2.01289600e-04     0.00000000e+00    
           1.87575293e-04     2.01968040e-04     0.00000000e+00    
           1.93671018e-04     2.03595118e-04     0.00000000e+00    
           1.99267088e-04     2.06091194e-04     0.00000000e+00    
           2.03898628e-04     2.08711979e-04     0.00000000e+00    
           2.48895725e-04     1.76305795e-04     0.00000000e+00    
           2.55302672e-04     1.80459043e-04     0.00000000e+00    
           2.61376059e-04     1.85796933e-04     0.00000000e+00    
           2.64593400e-04     1.90773892e-04     0.00000000e+00    
           2.64685979e-04     1.93817294e-04     0.00000000e+00    
           2.62761430e-04     1.96652138e-04     0.00000000e+00    
           2.60468107e-04     2.00154464e-04     0.00000000e+00    
           2.57554522e-04     2.04282216e-04     0.00000000e+00    
           2.53781327e-04     2.07641977e-04     0.00000000e+00    
           2.49229197e-04     2.09821315e-04     0.00000000e+00    
           2.43386661e-04     2.10530401e-04     0.00000000e+00    
           2.37129992e-04     2.09861770e-04     0.00000000e+00    
           2.24784279e-04     2.06255645e-04     0.00000000e+00    
           2.20774309e-04     2.03924123e-04     0.00000000e+00    
           2.18260306e-04     2.01461167e-04     0.00000000e+00    
           2.16627610e-04     1.97836664e-04     0.00000000e+00    
           2.15789740e-04     1.93408865e-04     0.00000000e+00    
           2.15890934e-04     1.88275182e-04     0.00000000e+00    
           2.16757762e-04     1.83147815e-04     0.00000000e+00    
           2.18477639e-04     1.79309995e-04     0.00000000e+00    
           2.21555441e-04     1.76707341e-04     0.00000000e+00    
           2.25748881e-04     1.74813162e-04     0.00000000e+00    
           2.30842677e-04     1.73571243e-04     0.00000000e+00    
           2.36617867e-04     1.73163484e-04     0.00000000e+00    
           2.38052395e-04     1.93186424e-04     0.00000000e+00    
           4.01333120e-04     2.26496035e-04     0.00000000e+00    
           4.01873520e-04     2.27996439e-04     0.00000000e+00    
           4.02046222e-04     2.29303245e-04     0.00000000e+00    
           4.01557481e-04     2.30197853e-04     0.00000000e+00    
           4.00253484e-04     2.30757971e-04     0.00000000e+00    
           3.98394041e-04     2.31034399e-04     0.00000000e+00    
           3.96044459e-04     2.30957754e-04     0.00000000e+00    
           3.93418246e-04     2.30453734e-04     0.00000000e+00    
           3.90582922e-04     2.29731260e-04     0.00000000e+00    
           3.88321001e-04     2.28811885e-04     0.00000000e+00    
           3.87394044e-04     2.27892306e-04     0.00000000e+00    
           3.87577515e-04     2.27121491e-04     0.00000000e+00    
           3.87852633e-04     2.26109521e-04     0.00000000e+00    
           3.88303888e-04     2.24823525e-04     0.00000000e+00    
           3.89040681e-04     2.23152107e-04     0.00000000e+00    
           3.90086294e-04     2.21349605e-04     0.00000000e+00    
           3.91687005e-04     2.20621689e-04     0.00000000e+00    
           3.94123577e-04     2.21250200e-04     0.00000000e+00    
           3.96513584e-04     2.22714603e-04     0.00000000e+00    
           3.98959819e-04     2.24148826e-04     0.00000000e+00    
           3.94538714e-04     2.26983539e-04     0.00000000e+00    
           2.10480124e-04     8.96429265e-05     0.00000000e+00    
           2.10504601e-04     8.98077051e-05     0.00000000e+00    