<?xml version="1.0"?>
<VTKFile type="UnstructuredGrid" version="0.1">
  <UnstructuredGrid>
    <Piece NumberOfPoints="1034" NumberOfCells="1614">
      <Points>
        <DataArray type="Float32" NumberOfComponents="3">
           5.21582007e-01     5.11657000e-01     0.00000000e+00    
           5.07319987e-01     5.11657000e-01     0.00000000e+00    
           4.65243995e-01     5.17907977e-01     0.00000000e+00    
           4.65243995e-01     5.04921973e-01     0.00000000e+00    
           4.75246996e-01     5.11415005e-01     0.00000000e+00    
           5.33852994e-01     5.04921973e-01     0.00000000e+00    
           5.33852994e-01     5.17907977e-01     0.00000000e+00    
           4.83779997e-01     5.34618974e-01     0.00000000e+00    
           4.68984991e-01     5.34618974e-01     0.00000000e+00    
           4.76381987e-01     5.23841977e-01     0.00000000e+00    
           4.68984991e-01     4.66010004e-01     0.00000000e+00    
           4.83779997e-01     4.66010004e-01     0.00000000e+00    
           4.99920011e-01     5.34618974e-01     0.00000000e+00    
           4.89203990e-01     5.34618974e-01     0.00000000e+00    
           4.94562000e-01     5.22280991e-01     0.00000000e+00    
           4.89203990e-01     4.66010004e-01     0.00000000e+00    
           4.99920011e-01     4.66010004e-01     0.00000000e+00    
           5.32517016e-01     4.74112004e-01     0.00000000e+00    
           5.17961025e-01     4.74112004e-01     0.00000000e+00    
           5.33852994e-01     5.19801974e-01     0.00000000e+00    
           5.33852994e-01     5.29603004e-01     0.00000000e+00    
           5.19536972e-01     5.24702013e-01     0.00000000e+00    
           4.65243995e-01     5.29603004e-01     0.00000000e+00    
           4.65243995e-01     5.19801974e-01     0.00000000e+00    
           4.92487997e-01     5.17117977e-01     0.00000000e+00    
           4.76904988e-01     5.17117977e-01     0.00000000e+00    
           5.17996013e-01     5.27033985e-01     0.00000000e+00    
           5.04473984e-01     5.27033985e-01     0.00000000e+00    
           5.08446991e-01     4.83435005e-01     0.00000000e+00    
           4.94414002e-01     4.83435005e-01     0.00000000e+00    
           4.65243995e-01     4.83101994e-01     0.00000000e+00    
           4.65243995e-01     4.74415004e-01     0.00000000e+00    
           4.78336990e-01     4.78758007e-01     0.00000000e+00    
           5.33852994e-01     4.74415004e-01     0.00000000e+00    
           5.33852994e-01     4.83101994e-01     0.00000000e+00    
           4.80668008e-01     4.95810986e-01     0.00000000e+00    
           4.66084987e-01     4.95810986e-01     0.00000000e+00    
           4.93930012e-01     4.79214013e-01     0.00000000e+00    
           4.78967011e-01     4.79214013e-01     0.00000000e+00    
           5.09284973e-01     4.97658014e-01     0.00000000e+00    
           4.95503992e-01     4.97658014e-01     0.00000000e+00    
           5.33011973e-01     5.01751006e-01     0.00000000e+00    
           5.17829001e-01     5.01751006e-01     0.00000000e+00    
           4.95451003e-01     5.00564992e-01     0.00000000e+00    
           4.80922014e-01     5.00564992e-01     0.00000000e+00    
           5.25367022e-01     4.88312006e-01     0.00000000e+00    
           5.09521008e-01     4.88312006e-01     0.00000000e+00    
           4.65243995e-01     5.34618974e-01     0.00000000e+00    
           4.65243995e-01     4.66010004e-01     0.00000000e+00    
           5.33852994e-01     4.66010004e-01     0.00000000e+00    
           5.33852994e-01     5.34618974e-01     0.00000000e+00    
           5.21338999e-01     5.13502657e-01     0.00000000e+00    
           5.20626605e-01     5.15222490e-01     0.00000000e+00    
           5.19493401e-01     5.16699374e-01     0.00000000e+00    
           5.18016517e-01     5.17832637e-01     0.00000000e+00    
           5.16296625e-01     5.18545032e-01     0.00000000e+00    
           5.14451027e-01     5.18787980e-01     0.00000000e+00    
           5.12605369e-01     5.18545032e-01     0.00000000e+00    
           5.10885477e-01     5.17832637e-01     0.00000000e+00    
           5.09408593e-01     5.16699374e-01     0.00000000e+00    
           5.08275390e-01     5.15222490e-01     0.00000000e+00    
           5.07562995e-01     5.13502657e-01     0.00000000e+00    
           5.07562995e-01     5.09811342e-01     0.00000000e+00    
           5.08275390e-01     5.08091509e-01     0.00000000e+00    
           5.09408593e-01     5.06614625e-01     0.00000000e+00    
           5.10885477e-01     5.05481362e-01     0.00000000e+00    
           5.12605369e-01     5.04768968e-01     0.00000000e+00    
           5.14451027e-01     5.04526019e-01     0.00000000e+00    
           5.16296625e-01     5.04768968e-01     0.00000000e+00    
           5.18016517e-01     5.05481362e-01     0.00000000e+00    
           5.19493401e-01     5.06614625e-01     0.00000000e+00    
           5.20626605e-01     5.08091509e-01     0.00000000e+00    
           5.21338999e-01     5.09811342e-01     0.00000000e+00    
           4.66931671e-01     5.04409373e-01     0.00000000e+00    
           4.68693614e-01     5.04328012e-01     0.00000000e+00    
           4.70421344e-01     5.04682958e-01     0.00000000e+00    
           4.72008497e-01     5.05452335e-01     0.00000000e+00    
           4.73357379e-01     5.06588817e-01     0.00000000e+00    
           4.74384934e-01     5.08022368e-01     0.00000000e+00    
           4.75027919e-01     5.09664834e-01     0.00000000e+00    
           4.75028187e-01     5.13165236e-01     0.00000000e+00    
           4.74385172e-01     5.14807761e-01     0.00000000e+00    
           4.73357558e-01     5.16241372e-01     0.00000000e+00    
           4.72008646e-01     5.17377913e-01     0.00000000e+00    
           4.70421433e-01     5.18147290e-01     0.00000000e+00    
           4.68693614e-01     5.18502235e-01     0.00000000e+00    
           4.66931641e-01     5.18420875e-01     0.00000000e+00    
           5.32303810e-01     5.16964078e-01     0.00000000e+00    
           5.31043947e-01     5.15658796e-01     0.00000000e+00    
           5.30155540e-01     5.14077127e-01     0.00000000e+00    
           5.29696345e-01     5.12322068e-01     0.00000000e+00    
           5.29696345e-01     5.10507941e-01     0.00000000e+00    
           5.30155540e-01     5.08752882e-01     0.00000000e+00    
           5.31043947e-01     5.07171214e-01     0.00000000e+00    
           5.32303810e-01     5.05865932e-01     0.00000000e+00    
           4.68517244e-01     5.32760799e-01     0.00000000e+00    
           4.68509018e-01     5.30844629e-01     0.00000000e+00    
           4.68960851e-01     5.28982460e-01     0.00000000e+00    
           4.69846308e-01     5.27283132e-01     0.00000000e+00    
           4.71113682e-01     5.25845945e-01     0.00000000e+00    
           4.72688884e-01     5.24754822e-01     0.00000000e+00    
           4.74479854e-01     5.24073541e-01     0.00000000e+00    
           4.78284091e-01     5.24073601e-01     0.00000000e+00    
           4.80075032e-01     5.24754822e-01     0.00000000e+00    
           4.81650203e-01     5.25845885e-01     0.00000000e+00    
           4.82917547e-01     5.27283013e-01     0.00000000e+00    
           4.83803004e-01     5.28982282e-01     0.00000000e+00    
           4.84254897e-01     5.30844331e-01     0.00000000e+00    
           4.84246761e-01     5.32760441e-01     0.00000000e+00    
           4.82887864e-01     4.67691004e-01     0.00000000e+00    
           4.81620818e-01     4.69110936e-01     0.00000000e+00    
           4.80051905e-01     4.70188022e-01     0.00000000e+00    
           4.78271484e-01     4.70860153e-01     0.00000000e+00    
           4.76382166e-01     4.71088618e-01     0.00000000e+00    
           4.74492878e-01     4.70860243e-01     0.00000000e+00    
           4.72712427e-01     4.70188200e-01     0.00000000e+00    
           4.71143454e-01     4.69111174e-01     0.00000000e+00    
           4.69876349e-01     4.67691302e-01     0.00000000e+00    
           4.88103986e-01     5.33086061e-01     0.00000000e+00    
           4.87431526e-01     5.31323195e-01     0.00000000e+00    
           4.87231195e-01     5.29447019e-01     0.00000000e+00    
           4.87516224e-01     5.27581930e-01     0.00000000e+00    
           4.88267750e-01     5.25851250e-01     0.00000000e+00    
           4.89436030e-01     5.24369657e-01     0.00000000e+00    
           4.90943670e-01     5.23235261e-01     0.00000000e+00    
           4.92690891e-01     5.22523046e-01     0.00000000e+00    
           4.96432930e-01     5.22523701e-01     0.00000000e+00    
           4.98180002e-01     5.23235798e-01     0.00000000e+00    
           4.99687493e-01     5.24370134e-01     0.00000000e+00    
           5.00855684e-01     5.25851607e-01     0.00000000e+00    
           5.01607120e-01     5.27582109e-01     0.00000000e+00    
           5.01892149e-01     5.29447079e-01     0.00000000e+00    
           5.01691818e-01     5.31323016e-01     0.00000000e+00    
           5.01019418e-01     5.33085763e-01     0.00000000e+00    
           4.98371124e-01     4.67269689e-01     0.00000000e+00    
           4.96539861e-01     4.68064904e-01     0.00000000e+00    
           4.94562000e-01     4.68336672e-01     0.00000000e+00    
           4.92584139e-01     4.68064904e-01     0.00000000e+00    
           4.90752876e-01     4.67269689e-01     0.00000000e+00    
           5.32269001e-01     4.75995690e-01     0.00000000e+00    
           5.31541944e-01     4.77750987e-01     0.00000000e+00    
           5.30385315e-01     4.79258329e-01     0.00000000e+00    
           5.28877974e-01     4.80414927e-01     0.00000000e+00    
[...]
      <PointData>
        <DataArray type="Float32" Name="Displacement" NumberOfComponents="3">
           1.43059617e-04     3.40453298e-05     0.00000000e+00    
           1.40027012e-04     4.15975228e-05     0.00000000e+00    
           6.60252845e-05     3.38131795e-05     0.00000000e+00    
           5.36297484e-05     3.05532521e-05     0.00000000e+00    
           6.32108422e-05     2.73367223e-05     0.00000000e+00    
           1.53629750e-04     3.05532521e-05     0.00000000e+00    
           1.66025289e-04     3.38131795e-05     0.00000000e+00    
           1.13241127e-04     4.14422429e-05     0.00000000e+00    
           1.09913461e-04     5.59760592e-05     0.00000000e+00    
           9.87171807e-05     4.72737956e-05     0.00000000e+00    
           9.91345769e-06     5.97605776e-06     0.00000000e+00    
           1.32411260e-05    -8.55775852e-06     0.00000000e+00    
           1.31047404e-04     3.59322257e-05     0.00000000e+00    
           1.28658416e-04     4.24575228e-05     0.00000000e+00    
           1.19115350e-04     3.71331698e-05     0.00000000e+00    
           2.86584091e-05    -7.54247867e-06     0.00000000e+00    
           3.10474097e-05    -1.40677757e-05     0.00000000e+00    
           1.11176108e-04     1.07231863e-05     0.00000000e+00    
           1.06237982e-04     2.20151833e-05     0.00000000e+00    
           1.68692713e-04     3.99236742e-05     0.00000000e+00    
           1.80998351e-04     4.18981763e-05     0.00000000e+00    
           1.70463245e-04     5.45630901e-05     0.00000000e+00    
           8.09983467e-05     4.18981763e-05     0.00000000e+00    
           6.86927087e-05     3.99236742e-05     0.00000000e+00    
           9.66805237e-05     2.99284020e-05     0.00000000e+00    
           9.21109022e-05     4.37499002e-05     0.00000000e+00    
           1.58078241e-04     4.81389325e-05     0.00000000e+00    
           1.52822744e-04     4.92108920e-05     0.00000000e+00    
           8.07798351e-05     1.64812081e-05     0.00000000e+00    
           7.35612339e-05     1.87290825e-05     0.00000000e+00    
           3.30833391e-05     1.67437702e-05     0.00000000e+00    
           2.26286465e-05     1.53861674e-05     0.00000000e+00    
           3.41411978e-05     5.25739370e-06     0.00000000e+00    
           1.22628640e-04     1.53861674e-05     0.00000000e+00    
           1.33083347e-04     1.67437702e-05     0.00000000e+00    
           6.03493609e-05     2.11637762e-05     0.00000000e+00    
           5.53158898e-05     2.75004149e-05     0.00000000e+00    
           5.29883691e-05     5.80090682e-06     0.00000000e+00    
           4.46200684e-05     1.08184040e-05     0.00000000e+00    
           9.33147530e-05     2.16432963e-05     0.00000000e+00    
           8.82118620e-05     2.59807093e-05     0.00000000e+00    
           1.41116892e-04     2.35180687e-05     0.00000000e+00    
           1.36921968e-04     3.57170247e-05     0.00000000e+00    
           8.19659472e-05     2.26967186e-05     0.00000000e+00    
           7.55928049e-05     2.66712213e-05     0.00000000e+00    
           1.12473339e-04     2.26855773e-05     0.00000000e+00    
           1.07145461e-04     3.11582880e-05     0.00000000e+00    
           9.99999975e-05     4.99999987e-05     0.00000000e+00    
           0.00000000e+00     0.00000000e+00     0.00000000e+00    
           9.99999975e-05     0.00000000e+00     0.00000000e+00    
           1.99999995e-04     4.99999987e-05     0.00000000e+00    
           1.44393387e-04     3.45807784e-05     0.00000000e+00    
           1.45700251e-04     3.53719588e-05     0.00000000e+00    
           1.46716789e-04     3.62755782e-05     0.00000000e+00    
           1.47301223e-04     3.71486385e-05     0.00000000e+00    
           1.47450977e-04     3.80968631e-05     0.00000000e+00    
           1.47228173e-04     3.90747045e-05     0.00000000e+00    
           1.46771345e-04     4.00258468e-05     0.00000000e+00    
           1.45929211e-04     4.08025371e-05     0.00000000e+00    
           1.44653095e-04     4.13960151e-05     0.00000000e+00    
           1.43194222e-04     4.17249612e-05     0.00000000e+00    
           1.41633456e-04     4.18072450e-05     0.00000000e+00    
           1.38465999e-04     4.10327302e-05     0.00000000e+00    
           1.37076364e-04     4.02434853e-05     0.00000000e+00    
           1.36025876e-04     3.93197843e-05     0.00000000e+00    
           1.35437556e-04     3.84216582e-05     0.00000000e+00    
           1.35487629e-04     3.75060299e-05     0.00000000e+00    
           1.36117858e-04     3.66547029e-05     0.00000000e+00    
           1.37054434e-04     3.58505204e-05     0.00000000e+00    
           1.38348390e-04     3.50664777e-05     0.00000000e+00    
           1.40029821e-04     3.42277890e-05     0.00000000e+00    
           1.40942633e-04     3.39158614e-05     0.00000000e+00    
           1.41791519e-04     3.38389327e-05     0.00000000e+00    
           5.44130489e-05     3.01229775e-05     0.00000000e+00    
           5.51757512e-05     2.96442868e-05     0.00000000e+00    
           5.59111540e-05     2.89453765e-05     0.00000000e+00    
           5.69220865e-05     2.82513392e-05     0.00000000e+00    
           5.81455824e-05     2.76563642e-05     0.00000000e+00    
           5.96861537e-05     2.72489415e-05     0.00000000e+00    
           6.13733646e-05     2.71561985e-05     0.00000000e+00    
           6.48840578e-05     2.76976498e-05     0.00000000e+00    
           6.60752776e-05     2.81473913e-05     0.00000000e+00    
           6.68064458e-05     2.87639978e-05     0.00000000e+00    
           6.71795351e-05     2.95773007e-05     0.00000000e+00    
           6.73629838e-05     3.05628564e-05     0.00000000e+00    
           6.72363531e-05     3.16117148e-05     0.00000000e+00    
           6.67613931e-05     3.26567133e-05     0.00000000e+00    
           1.64967845e-04     3.49255097e-05     0.00000000e+00    
           1.63616161e-04     3.55614611e-05     0.00000000e+00    
           1.61906763e-04     3.57678909e-05     0.00000000e+00    
           1.59917196e-04     3.56030105e-05     0.00000000e+00    
           1.57699513e-04     3.49320690e-05     0.00000000e+00    
           1.55318921e-04     3.36525663e-05     0.00000000e+00    
           1.52885477e-04     3.17076192e-05     0.00000000e+00    
           1.52932902e-04     3.07517221e-05     0.00000000e+00    
           1.07152780e-04     5.59260479e-05     0.00000000e+00    
           1.04477644e-04     5.54178732e-05     0.00000000e+00    
           1.02144098e-04     5.46340270e-05     0.00000000e+00    
           1.00423604e-04     5.35833133e-05     0.00000000e+00    
           9.93142385e-05     5.22058472e-05     0.00000000e+00    
           9.86648884e-05     5.06033102e-05     0.00000000e+00    
           9.84628205e-05     4.89071426e-05     0.00000000e+00    
           9.94773436e-05     4.56246416e-05     0.00000000e+00    
           1.00607191e-04     4.39853502e-05     0.00000000e+00    
           1.02174781e-04     4.25204526e-05     0.00000000e+00    
           1.04212028e-04     4.13589769e-05     0.00000000e+00    
           1.06616899e-04     4.06046820e-05     0.00000000e+00    
           1.08961380e-04     4.03453596e-05     0.00000000e+00    
           1.11179746e-04     4.05994506e-05     0.00000000e+00    
           1.51627946e-05    -7.26165990e-06     0.00000000e+00    
           1.67800190e-05    -5.61613797e-06     0.00000000e+00    
           1.78691462e-05    -3.86615147e-06     0.00000000e+00    
           1.82999775e-05    -2.12271448e-06     0.00000000e+00    
           1.81054038e-05    -3.07538954e-07     0.00000000e+00    
           1.74734814e-05     1.49216987e-06     0.00000000e+00    
           1.63168606e-05     3.20286995e-06     0.00000000e+00    
           1.46028597e-05     4.51987853e-06     0.00000000e+00    
           1.23807222e-05     5.47253740e-06     0.00000000e+00    
           1.26939151e-04     4.29969441e-05     0.00000000e+00    
           1.25126491e-04     4.32125562e-05     0.00000000e+00    
           1.23366583e-04     4.30783257e-05     0.00000000e+00    
           1.21671539e-04     4.25083672e-05     0.00000000e+00    
           1.19818818e-04     4.12821864e-05     0.00000000e+00    
           1.18329706e-04     3.97510157e-05     0.00000000e+00    
           1.17831674e-04     3.85552521e-05     0.00000000e+00    
           1.18210737e-04     3.78168697e-05     0.00000000e+00    
           1.20252989e-04     3.63652034e-05     0.00000000e+00    
           1.21644858e-04     3.56566015e-05     0.00000000e+00    
           1.23329068e-04     3.51039525e-05     0.00000000e+00    
           1.25142265e-04     3.47048954e-05     0.00000000e+00    
           1.26813931e-04     3.44578075e-05     0.00000000e+00    
           1.28199506e-04     3.44190557e-05     0.00000000e+00    
           1.29248918e-04     3.45930712e-05     0.00000000e+00    
           1.30184228e-04     3.51410636e-05     0.00000000e+00    
           3.16986989e-05    -1.30348244e-05     0.00000000e+00    
           3.20236722e-05    -1.18771459e-05     0.00000000e+00    
           3.19245846e-05    -1.06838625e-05     0.00000000e+00    
           3.13024029e-05    -9.49009791e-06     0.00000000e+00    
           3.02141398e-05    -8.41373821e-06     0.00000000e+00    
           1.13580129e-04     1.14973764e-05     0.00000000e+00    
           1.14665294e-04     1.23196332e-05     0.00000000e+00    
           1.14925788e-04     1.30717999e-05     0.00000000e+00    
           1.14926792e-04     1.42284789e-05     0.00000000e+00    
           1.14728173e-04     1.56495771e-05     0.00000000e+00    
           1.14256400e-04     1.72200726e-05     0.00000000e+00    
           1.13373128e-04     1.88736067e-05     0.00000000e+00    
           1.12341768e-04     2.03292602e-05     0.00000000e+00    
           1.11268913e-04     2.12508585e-05     0.00000000e+00    
           1.09829823e-04     2.18305486e-05     0.00000000e+00    
           1.08086584e-04     2.21403334e-05     0.00000000e+00    
           1.04404673e-04     2.15393502e-05     0.00000000e+00    
           1.02735925e-04     2.06822860e-05     0.00000000e+00    
           1.01348021e-04     1.95463690e-05     0.00000000e+00    
           1.00393168e-04     1.81514315e-05     0.00000000e+00    
           9.99721815e-05     1.65814909e-05     0.00000000e+00    
           1.00033452e-04     1.48931013e-05     0.00000000e+00    
           1.00638223e-04     1.32787409e-05     0.00000000e+00    
           1.01881596e-04     1.19085107e-05     0.00000000e+00    
           1.03610932e-04     1.09298235e-05     0.00000000e+00    
           1.05759951e-04     1.03443463e-05     0.00000000e+00    
           1.08299697e-04     1.02336735e-05     0.00000000e+00    
           1.82049043e-04     4.33313326e-05     0.00000000e+00    
           1.82671734e-04     4.50948100e-05     0.00000000e+00    
           1.82886593e-04     4.71591120e-05     0.00000000e+00    
           1.82528791e-04     4.92637992e-05     0.00000000e+00    
           1.81489202e-04     5.12256847e-05     0.00000000e+00    
           1.79743176e-04     5.27828088e-05     0.00000000e+00    
           1.77490525e-04     5.38135428e-05     0.00000000e+00    
           1.74995395e-04     5.44793838e-05     0.00000000e+00    
           1.72520638e-04     5.47349991e-05     0.00000000e+00    
           1.68681421e-04     5.39290850e-05     0.00000000e+00    
           1.66902246e-04     5.28544842e-05     0.00000000e+00    
           1.65347621e-04     5.15092252e-05     0.00000000e+00    
           1.64284371e-04     5.00430542e-05     0.00000000e+00    
           1.63779143e-04     4.84104021e-05     0.00000000e+00    
           1.63831064e-04     4.66040256e-05     0.00000000e+00    
           1.64336700e-04     4.46383783e-05     0.00000000e+00    
           1.65309946e-04     4.26168735e-05     0.00000000e+00    
           1.66766520e-04     4.09718850e-05     0.00000000e+00    
           7.08138614e-05     3.94132803e-05     0.00000000e+00    
           7.31514810e-05     3.92751281e-05     0.00000000e+00    
           7.55462243e-05     3.95467650e-05     0.00000000e+00    
           7.77614332e-05     4.01711222e-05     0.00000000e+00    
           7.96189997e-05     4.09552267e-05     0.00000000e+00    
           9.90909175e-05     3.05464418e-05     0.00000000e+00    
           1.01503079e-04     3.18250713e-05     0.00000000e+00    
           1.03724662e-04     3.35268960e-05     0.00000000e+00    
           1.04964522e-04     3.52559764e-05     0.00000000e+00    
           1.05177358e-04     3.65519118e-05     0.00000000e+00    
           1.04595827e-04     3.77895012e-05     0.00000000e+00    
           1.03759929e-04     3.90623609e-05     0.00000000e+00    
           1.02731225e-04     4.05028113e-05     0.00000000e+00    
           1.01307152e-04     4.18663076e-05     0.00000000e+00    
           9.94933362e-05     4.30360160e-05     0.00000000e+00    
           9.71795162e-05     4.37409071e-05     0.00000000e+00    
           9.46752552e-05     4.39347932e-05     0.00000000e+00    
           8.97722421e-05     4.31819535e-05     0.00000000e+00    
           8.80685184e-05     4.24348036e-05     0.00000000e+00    
           8.69566429e-05     4.15597933e-05     0.00000000e+00    
           8.62613597e-05     4.02762453e-05     0.00000000e+00    
           8.58951171e-05     3.87286382e-05     0.00000000e+00    
           8.58952917e-05     3.69853224e-05     0.00000000e+00    
           8.62080560e-05     3.51807103e-05     0.00000000e+00    
           8.69340365e-05     3.35959667e-05     0.00000000e+00    
           8.82123932e-05     3.22494379e-05     0.00000000e+00    
           8.99247098e-05     3.11273106e-05     0.00000000e+00    
           9.19920858e-05     3.03196884e-05     0.00000000e+00    
           9.42894694e-05     2.98845771e-05     0.00000000e+00    
           1.58293304e-04     4.84244156e-05     0.00000000e+00    
           1.58415511e-04     4.88056066e-05     0.00000000e+00    
           1.58450581e-04     4.91506908e-05     0.00000000e+00    
           1.58284427e-04     4.94138185e-05     0.00000000e+00    
           1.57807022e-04     4.95980676e-05     0.00000000e+00    
           1.57107977e-04     4.97111287e-05     0.00000000e+00    
           1.56200418e-04     4.97323927e-05     0.00000000e+00    
           1.55175076e-04     4.96342291e-05     0.00000000e+00    
           1.54078996e-04     4.94808774e-05     0.00000000e+00    
           1.53225628e-04     4.92793479e-05     0.00000000e+00    
           1.52821754e-04     4.92313848e-05     0.00000000e+00    
           1.52889595e-04     4.91237224e-05     0.00000000e+00    
           1.52991081e-04     4.89615268e-05     0.00000000e+00    
           1.53134970e-04     4.87419966e-05     0.00000000e+00    
           1.53390909e-04     4.83945587e-05     0.00000000e+00    
           1.53743778e-04     4.79143891e-05     0.00000000e+00    
           1.54371388e-04     4.75528432e-05     0.00000000e+00    
           1.55379239e-04     4.74885092e-05     0.00000000e+00    
           1.56389418e-04     4.76824644e-05     0.00000000e+00    
           1.57408955e-04     4.79460505e-05     0.00000000e+00    
           8.21264766e-05     1.69312534e-05     0.00000000e+00    
           8.26210526e-05     1.70239218e-05     0.00000000e+00    
           8.25426032e-05     1.72325890e-05     0.00000000e+00    
           8.23177688e-05     1.76620670e-05     0.00000000e+00    
           8.22319125e-05     1.85182507e-05     0.00000000e+00    
           8.19552151e-05     1.92535863e-05     0.00000000e+00    
           8.11841237e-05     1.93612832e-05     0.00000000e+00    
           8.01162096e-05     1.94274926e-05     0.00000000e+00    
           7.87982208e-05     1.94578624e-05     0.00000000e+00    
           7.73052961e-05     1.93572450e-05     0.00000000e+00    
           7.54895591e-05     1.91868967e-05     0.00000000e+00    
           7.21376200e-05     1.83048760e-05     0.00000000e+00    
           7.18496885e-05     1.80948246e-05     0.00000000e+00    
           7.22648838e-05     1.79695780e-05     0.00000000e+00    
           7.26261060e-05     1.77449383e-05     0.00000000e+00    
           7.29897220e-05     1.73924236e-05     0.00000000e+00    
           7.34171481e-05     1.70065050e-05     0.00000000e+00    
           7.41288968e-05     1.66414520e-05     0.00000000e+00    
           7.50528707e-05     1.63154800e-05     0.00000000e+00    
           7.62522395e-05     1.61416465e-05     0.00000000e+00    
           7.76260931e-05     1.60779564e-05     0.00000000e+00    
           7.91483471e-05     1.62380347e-05     0.00000000e+00    
           2.23060670e-05     1.45519025e-05     0.00000000e+00    
           2.20030070e-05     1.33651711e-05     0.00000000e+00    
           2.19544127e-05     1.19171145e-05     0.00000000e+00    
           2.22114995e-05     1.02181948e-05     0.00000000e+00    
           2.29924099e-05     8.51041386e-06     0.00000000e+00    
           2.44266921e-05     6.97393352e-06     0.00000000e+00    
           2.64901464e-05     5.90046648e-06     0.00000000e+00    
           2.89780273e-05     5.27743578e-06     0.00000000e+00    
           3.17316444e-05     5.04564287e-06     0.00000000e+00    
           3.54166659e-05     5.65813343e-06     0.00000000e+00    
           3.60284212e-05     6.25365328e-06     0.00000000e+00    
           3.67193279e-05     7.21808556e-06     0.00000000e+00    
           3.74024421e-05     8.51808090e-06     0.00000000e+00    
           3.79373196e-05     1.01017049e-05     0.00000000e+00    
           3.80268975e-05     1.17322179e-05     0.00000000e+00    
           3.75425116e-05     1.32192044e-05     0.00000000e+00    
           3.65079286e-05     1.46310767e-05     0.00000000e+00    
           3.49946713e-05     1.58264666e-05     0.00000000e+00    
           1.30773798e-04     1.73176904e-05     0.00000000e+00    
           1.28037893e-04     1.72690634e-05     0.00000000e+00    
           1.25307983e-04     1.68492661e-05     0.00000000e+00    
           1.23349251e-04     1.60479594e-05     0.00000000e+00    
           6.18986378e-05     2.16643803e-05     0.00000000e+00    
           6.24320746e-05     2.20875390e-05     0.00000000e+00    
           6.22989974e-05     2.26100274e-05     0.00000000e+00    
           6.20624924e-05     2.32275725e-05     0.00000000e+00    
           6.17413752e-05     2.39006913e-05     0.00000000e+00    
           6.12338335e-05     2.46259333e-05     0.00000000e+00    
           6.05856185e-05     2.54058177e-05     0.00000000e+00    
           5.97313301e-05     2.61716395e-05     0.00000000e+00    
           5.85897542e-05     2.67896885e-05     0.00000000e+00    
           5.73594734e-05     2.72178495e-05     0.00000000e+00    
           5.62399364e-05     2.74905160e-05     0.00000000e+00    
           5.44991017e-05     2.72374236e-05     0.00000000e+00    
           5.37367232e-05     2.67192572e-05     0.00000000e+00    
           5.31098813e-05     2.59740464e-05     0.00000000e+00    
           5.26461117e-05     2.49948571e-05     0.00000000e+00    
           5.24096322e-05     2.38691282e-05     0.00000000e+00    
           5.25060605e-05     2.28359095e-05     0.00000000e+00    
           5.30198340e-05     2.19961476e-05     0.00000000e+00    
           5.39333560e-05     2.13728945e-05     0.00000000e+00    
           5.51765552e-05     2.09295322e-05     0.00000000e+00    