<?xml version="1.0"?>
<VTKFile type="UnstructuredGrid" version="0.1">
  <UnstructuredGrid>
    <Piece NumberOfPoints="1034" NumberOfCells="1614">
      <Points>
        <DataArray type="Float32" NumberOfComponents="3">
           5.21582007e-01     5.11657000e-01     0.00000000e+00    
           5.07319987e-01     5.11657000e-01     0.00000000e+00    
           4.65243995e-01     5.17907977e-01     0.00000000e+00    
           4.65243995e-01     5.04921973e-01     0.00000000e+00    
           4.75246996e-01     5.11415005e-01     0.00000000e+00    
           5.33852994e-01     5.04921973e-01     0.00000000e+00    
           5.33852994e-01     5.17907977e-01     0.00000000e+00    
           4.83779997e-01     5.34618974e-01     0.00000000e+00    
           4.68984991e-01     5.34618974e-01     0.00000000e+00    
           4.76381987e-01     5.23841977e-01     0.00000000e+00    
           4.68984991e-01     4.66010004e-01     0.00000000e+00    
           4.83779997e-01     4.66010004e-01     0.00000000e+00    
           4.99920011e-01     5.34618974e-01     0.00000000e+00    
           4.89203990e-01     5.34618974e-01     0.00000000e+00    
           4.94562000e-01     5.22280991e-01     0.00000000e+00    
           4.89203990e-01     4.66010004e-01     0.00000000e+00    
           4.99920011e-01     4.66010004e-01     0.00000000e+00    
           5.32517016e-01     4.74112004e-01     0.00000000e+00    
           5.17961025e-01     4.74112004e-01     0.00000000e+00    
           5.33852994e-01     5.19801974e-01     0.00000000e+00    
           5.33852994e-01     5.29603004e-01     0.00000000e+00    
           5.19536972e-01     5.24702013e-01     0.00000000e+00    
           4.65243995e-01     5.29603004e-01     0.00000000e+00    
           4.65243995e-01     5.19801974e-01     0.00000000e+00    
           4.92487997e-01     5.17117977e-01     0.00000000e+00    
           4.76904988e-01     5.17117977e-01     0.00000000e+00    
           5.17996013e-01     5.27033985e-01     0.00000000e+00    
           5.04473984e-01     5.27033985e-01     0.00000000e+00    
           5.08446991e-01     4.83435005e-01     0.00000000e+00    
           4.94414002e-01     4.83435005e-01     0.00000000e+00    
           4.65243995e-01     4.83101994e-01     0.00000000e+00    
           4.65243995e-01     4.74415004e-01     0.00000000e+00    
           4.78336990e-01     4.78758007e-01     0.00000000e+00    
           5.33852994e-01     4.74415004e-01     0.00000000e+00    
           5.33852994e-01     4.83101994e-01     0.00000000e+00    
           4.80668008e-01     4.95810986e-01     0.00000000e+00    
           4.66084987e-01     4.95810986e-01     0.00000000e+00    
           4.93930012e-01     4.79214013e-01     0.00000000e+00    
           4.78967011e-01     4.79214013e-01     0.00000000e+00    
           5.09284973e-01     4.97658014e-01     0.00000000e+00    
           4.95503992e-01     4.97658014e-01     0.00000000e+00    
           5.33011973e-01     5.01751006e-01     0.00000000e+00    
           5.17829001e-01     5.01751006e-01     0.00000000e+00    
           4.95451003e-01     5.00564992e-01     0.00000000e+00    
           4.80922014e-01     5.00564992e-01     0.00000000e+00    
           5.25367022e-01     4.88312006e-01     0.00000000e+00    
           5.09521008e-01     4.88312006e-01     0.00000000e+00    
           4.65243995e-01     5.34618974e-01     0.00000000e+00    
           4.65243995e-01     4.66010004e-01     0.00000000e+00    
           5.33852994e-01     4.66010004e-01     0.00000000e+00    
           5.33852994e-01     5.34618974e-01     0.00000000e+00    
           5.21338999e-01     5.13502657e-01     0.00000000e+00    
           5.20626605e-01     5.15222490e-01     0.00000000e+00    
           5.19493401e-01     5.16699374e-01     0.00000000e+00    
           5.18016517e-01     5.17832637e-01     0.00000000e+00    
           5.16296625e-01     5.18545032e-01     0.00000000e+00    
           5.14451027e-01     5.18787980e-01     0.00000000e+00    
           5.12605369e-01     5.18545032e-01     0.00000000e+00    
           5.10885477e-01     5.17832637e-01     0.00000000e+00    
           5.09408593e-01     5.16699374e-01     0.00000000e+00    
           5.08275390e-01     5.15222490e-01     0.00000000e+00    
           5.07562995e-01     5.13502657e-01     0.00000000e+00    
           5.07562995e-01     5.09811342e-01     0.00000000e+00    
           5.08275390e-01     5.08091509e-01     0.00000000e+00    
           5.09408593e-01     5.06614625e-01     0.00000000e+00    
           5.10885477e-01     5.05481362e-01     0.00000000e+00    
           5.12605369e-01     5.04768968e-01     0.00000000e+00    
           5.14451027e-01     5.04526019e-01     0.00000000e+00    
           5.16296625e-01     5.04768968e-01     0.00000000e+00    
           5.18016517e-01     5.05481362e-01     0.00000000e+00    
           5.19493401e-01     5.06614625e-01     0.00000000e+00    
           5.20626605e-01     5.08091509e-01     0.00000000e+00    
           5.21338999e-01     5.09811342e-01     0.00000000e+00    
           4.66931671e-01     5.04409373e-01     0.00000000e+00    
           4.68693614e-01     5.04328012e-01     0.00000000e+00    
           4.70421344e-01     5.04682958e-01     0.00000000e+00    
           4.72008497e-01     5.05452335e-01     0.00000000e+00    
           4.73357379e-01     5.06588817e-01     0.00000000e+00    
           4.74384934e-01     5.08022368e-01     0.00000000e+00    
           4.75027919e-01     5.09664834e-01     0.00000000e+00    
           4.75028187e-01     5.13165236e-01     0.00000000e+00    
           4.74385172e-01     5.14807761e-01     0.00000000e+00    
           4.73357558e-01     5.16241372e-01     0.00000000e+00    
           4.72008646e-01     5.17377913e-01     0.00000000e+00    
           4.70421433e-01     5.18147290e-01     0.00000000e+00    
           4.68693614e-01     5.18502235e-01     0.00000000e+00    
           4.66931641e-01     5.18420875e-01     0.00000000e+00    
           5.32303810e-01     5.16964078e-01     0.00000000e+00    
           5.31043947e-01     5.15658796e-01     0.00000000e+00    
           5.30155540e-01     5.14077127e-01     0.00000000e+00    
           5.29696345e-01     5.12322068e-01     0.00000000e+00    
           5.29696345e-01     5.10507941e-01     0.00000000e+00    
           5.30155540e-01     5.08752882e-01     0.00000000e+00    
           5.31043947e-01     5.07171214e-01     0.00000000e+00    
           5.32303810e-01     5.05865932e-01     0.00000000e+00    
           4.68517244e-01     5.32760799e-01     0.00000000e+00    
           4.68509018e-01     5.30844629e-01     0.00000000e+00    
           4.68960851e-01     5.28982460e-01     0.00000000e+00    
           4.69846308e-01     5.27283132e-01     0.00000000e+00    
           4.71113682e-01     5.25845945e-01     0.00000000e+00    
           4.72688884e-01     5.24754822e-01     0.00000000e+00    
           4.74479854e-01     5.24073541e-01     0.00000000e+00    
           4.78284091e-01     5.24073601e-01     0.00000000e+00    
           4.80075032e-01     5.24754822e-01     0.00000000e+00    
           4.81650203e-01     5.25845885e-01     0.00000000e+00    
           4.82917547e-01     5.27283013e-01     0.00000000e+00    
           4.83803004e-01     5.28982282e-01     0.00000000e+00    
           4.84254897e-01     5.30844331e-01     0.00000000e+00    
           4.84246761e-01     5.32760441e-01     0.00000000e+00    
           4.82887864e-01     4.67691004e-01     0.00000000e+00    
           4.81620818e-01     4.69110936e-01     0.00000000e+00    
           4.80051905e-01     4.70188022e-01     0.00000000e+00    
           4.78271484e-01     4.70860153e-01     0.00000000e+00    
           4.76382166e-01     4.71088618e-01     0.00000000e+00    
           4.74492878e-01     4.70860243e-01     0.00000000e+00    
           4.72712427e-01     4.70188200e-01     0.00000000e+00    
           4.71143454e-01     4.69111174e-01     0.00000000e+00    
           4.69876349e-01     4.67691302e-01     0.00000000e+00    
           4.88103986e-01     5.33086061e-01     0.00000000e+00    
           4.87431526e-01     5.31323195e-01     0.00000000e+00    
           4.87231195e-01     5.29447019e-01     0.00000000e+00    
           4.87516224e-01     5.27581930e-01     0.00000000e+00    
           4.88267750e-01     5.25851250e-01     0.00000000e+00    
           4.89436030e-01     5.24369657e-01     0.00000000e+00    
           4.90943670e-01     5.23235261e-01     0.00000000e+00    
           4.92690891e-01     5.22523046e-01     0.00000000e+00    
           4.96432930e-01     5.22523701e-01     0.00000000e+00    
           4.98180002e-01     5.23235798e-01     0.00000000e+00    
           4.99687493e-01     5.24370134e-01     0.00000000e+00    
           5.00855684e-01     5.25851607e-01     0.00000000e+00    
           5.01607120e-01     5.27582109e-01     0.00000000e+00    
           5.01892149e-01     5.29447079e-01     0.00000000e+00    
           5.01691818e-01     5.31323016e-01     0.00000000e+00    
           5.01019418e-01     5.33085763e-01     0.00000000e+00    
           4.98371124e-01     4.67269689e-01     0.00000000e+00    
           4.96539861e-01     4.68064904e-01     0.00000000e+00    
           4.94562000e-01     4.68336672e-01     0.00000000e+00    
           4.92584139e-01     4.68064904e-01     0.00000000e+00    
           4.90752876e-01     4.67269689e-01     0.00000000e+00    
           5.32269001e-01     4.75995690e-01     0.00000000e+00    
           5.31541944e-01     4.77750987e-01     0.00000000e+00    
           5.30385315e-01     4.79258329e-01     0.00000000e+00    
           5.28877974e-01     4.80414927e-01     0.00000000e+00    
[...]
      <PointData>
        <DataArray type="Float32" Name="Displacement" NumberOfComponents="3">
           3.03591485e-03     7.36793270e-04     0.00000000e+00    
           3.01597035e-03     8.86429334e-04     0.00000000e+00    
           1.50540133e-03     7.84848875e-04     0.00000000e+00    
           1.27651996e-03     7.69291364e-04     0.00000000e+00    
           1.40520383e-03     6.06577029e-04     0.00000000e+00    
           3.32651986e-03     7.69291364e-04     0.00000000e+00    
           3.55540123e-03     7.84848875e-04     0.00000000e+00    
           2.52224458e-03     1.01155054e-03     0.00000000e+00    
           2.50146538e-03     1.27828971e-03     0.00000000e+00    
           2.31037289e-03     1.13238289e-03     0.00000000e+00    
           4.51465428e-04     2.53289763e-04     0.00000000e+00    
           4.72244661e-04    -1.34494476e-05     0.00000000e+00    
           2.93257716e-03     9.75579082e-04     0.00000000e+00    
           2.91564944e-03     1.11189962e-03     0.00000000e+00    
           2.76011135e-03     1.02957361e-03     0.00000000e+00    
           8.65649374e-04     8.68996431e-05     0.00000000e+00    
           8.82577151e-04    -4.94209053e-05     0.00000000e+00    
           2.04084907e-03     5.40509136e-05     0.00000000e+00    
           2.02102866e-03     2.83881265e-04     0.00000000e+00    
           3.56333307e-03     8.35334184e-04     0.00000000e+00    
           3.74315795e-03     8.47057207e-04     0.00000000e+00    
           3.63317737e-03     1.09718682e-03     0.00000000e+00    
           1.69315794e-03     8.47057207e-04     0.00000000e+00    
           1.51333294e-03     8.35334184e-04     0.00000000e+00    
           2.22678133e-03     7.70769198e-04     0.00000000e+00    
           2.20568711e-03     1.05488894e-03     0.00000000e+00    
           3.26354918e-03     8.82981403e-04     0.00000000e+00    
           3.24420631e-03     1.07104972e-03     0.00000000e+00    
           1.72321289e-03     2.88962823e-04     0.00000000e+00    
           1.70458120e-03     5.53444785e-04     0.00000000e+00    
           7.52673775e-04     4.07701184e-04     0.00000000e+00    
           6.10334217e-04     3.99673620e-04     0.00000000e+00    
           7.00481876e-04     1.93268206e-04     0.00000000e+00    
           2.66033434e-03     3.99673620e-04     0.00000000e+00    
           2.80267373e-03     4.07701184e-04     0.00000000e+00    
           1.13658584e-03     4.28101601e-04     0.00000000e+00    
           1.11651770e-03     6.33840682e-04     0.00000000e+00    
           1.04831392e-03     1.85375218e-04     0.00000000e+00    
           1.02762925e-03     3.73132061e-04     0.00000000e+00    
           2.08238792e-03     3.90049623e-04     0.00000000e+00    
           2.06244853e-03     6.45186810e-04     0.00000000e+00    
           2.98624742e-03     5.80997264e-04     0.00000000e+00    
           2.96479324e-03     7.51217653e-04     0.00000000e+00    
           1.88988389e-03     5.69005380e-04     0.00000000e+00    
           1.86954346e-03     8.35707528e-04     0.00000000e+00    
           2.22074008e-03     2.56503612e-04     0.00000000e+00    
           2.19867844e-03     4.90088656e-04     0.00000000e+00    
           2.05000001e-03     1.02500001e-03     0.00000000e+00    
           0.00000000e+00     0.00000000e+00     0.00000000e+00    
           2.05000001e-03     0.00000000e+00     0.00000000e+00    
           4.10000002e-03     1.02500001e-03     0.00000000e+00    
           3.05556227e-03     7.41576368e-04     0.00000000e+00    
           3.07354052e-03     7.50784879e-04     0.00000000e+00    
           3.08844098e-03     7.64258846e-04     0.00000000e+00    
           3.09937424e-03     7.81303155e-04     0.00000000e+00    
           3.10503040e-03     8.01029091e-04     0.00000000e+00    
           3.10472795e-03     8.21653230e-04     0.00000000e+00    
           3.09936423e-03     8.41257628e-04     0.00000000e+00    
           3.08872480e-03     8.58698040e-04     0.00000000e+00    
           3.07304459e-03     8.72298842e-04     0.00000000e+00    
           3.05514061e-03     8.81124346e-04     0.00000000e+00    
           3.03594558e-03     8.85955233e-04     0.00000000e+00    
           2.99633574e-03     8.81987915e-04     0.00000000e+00    
           2.97838170e-03     8.73004552e-04     0.00000000e+00    
           2.96339882e-03     8.59654450e-04     0.00000000e+00    
           2.95244483e-03     8.42911017e-04     0.00000000e+00    
           2.94662127e-03     8.23701499e-04     0.00000000e+00    
           2.94668903e-03     8.03350587e-04     0.00000000e+00    
           2.95278756e-03     7.83786469e-04     0.00000000e+00    
           2.96409149e-03     7.66689132e-04     0.00000000e+00    
           2.97852280e-03     7.52071035e-04     0.00000000e+00    
           2.99598626e-03     7.41591444e-04     0.00000000e+00    
           3.01541924e-03     7.36503862e-04     0.00000000e+00    
           1.26982515e-03     7.38876930e-04     0.00000000e+00    
           1.27126917e-03     7.08147301e-04     0.00000000e+00    
           1.28014502e-03     6.78828568e-04     0.00000000e+00    
           1.29655714e-03     6.52912189e-04     0.00000000e+00    
           1.31927116e-03     6.32321346e-04     0.00000000e+00    
           1.34550210e-03     6.17577578e-04     0.00000000e+00    
           1.37455575e-03     6.08744449e-04     0.00000000e+00    
           1.43561966e-03     6.11618510e-04     0.00000000e+00    
           1.46383338e-03     6.23862783e-04     0.00000000e+00    
           1.48794788e-03     6.42650703e-04     0.00000000e+00    
           1.50671753e-03     6.66808279e-04     0.00000000e+00    
           1.51859678e-03     6.95036899e-04     0.00000000e+00    
           1.52251055e-03     7.26080674e-04     0.00000000e+00    
           1.51754275e-03     7.56507216e-04     0.00000000e+00    
           3.53679946e-03     8.10618920e-04     0.00000000e+00    
           3.51203722e-03     8.30230827e-04     0.00000000e+00    
           3.48290172e-03     8.42406298e-04     0.00000000e+00    
           3.45180836e-03     8.47788993e-04     0.00000000e+00    
           3.42043187e-03     8.45677394e-04     0.00000000e+00    
           3.39039043e-03     8.36090592e-04     0.00000000e+00    
           3.36356973e-03     8.19621375e-04     0.00000000e+00    
           3.34178866e-03     7.96897919e-04     0.00000000e+00    
           2.46680598e-03     1.28464785e-03     0.00000000e+00    
           2.43146811e-03     1.28319673e-03     0.00000000e+00    
           2.39744061e-03     1.27357559e-03     0.00000000e+00    
           2.36675981e-03     1.25613611e-03     0.00000000e+00    
           2.34121038e-03     1.23180088e-03     0.00000000e+00    
           2.32256530e-03     1.20191509e-03     0.00000000e+00    
           2.31211027e-03     1.16803113e-03     0.00000000e+00    
           2.31830636e-03     1.09741825e-03     0.00000000e+00    
           2.33369693e-03     1.06544176e-03     0.00000000e+00    
           2.35626847e-03     1.03807333e-03     0.00000000e+00    
           2.38531968e-03     1.01730064e-03     0.00000000e+00    
           2.41844309e-03     1.00425677e-03     0.00000000e+00    
           2.45321030e-03     9.98788397e-04     0.00000000e+00    
           2.48846854e-03     1.00104988e-03     0.00000000e+00    
           5.02324023e-04     4.55467534e-06     0.00000000e+00    
           5.27289521e-04     2.91963042e-05     0.00000000e+00    
           5.45283663e-04     5.92382494e-05     0.00000000e+00    
           5.55233331e-04     9.28457885e-05     0.00000000e+00    
           5.56328625e-04     1.27982508e-04     0.00000000e+00    
           5.49185905e-04     1.62056516e-04     0.00000000e+00    
           5.34233171e-04     1.93466622e-04     0.00000000e+00    
           5.11473394e-04     2.19797919e-04     0.00000000e+00    
           4.83115902e-04     2.39733432e-04     0.00000000e+00    
           2.89424649e-03     1.12322054e-03     0.00000000e+00    
           2.87083699e-03     1.12942245e-03     0.00000000e+00    
           2.84618489e-03     1.13016670e-03     0.00000000e+00    
           2.82215513e-03     1.12469343e-03     0.00000000e+00    
           2.80049723e-03     1.11360801e-03     0.00000000e+00    
           2.78236810e-03     1.09756447e-03     0.00000000e+00    
           2.76889955e-03     1.07744569e-03     0.00000000e+00    
           2.76091206e-03     1.05453236e-03     0.00000000e+00    
           2.76662828e-03     1.00484001e-03     0.00000000e+00    
           2.77990312e-03     9.83311562e-04     0.00000000e+00    
           2.79800617e-03     9.66411841e-04     0.00000000e+00    
           2.81923264e-03     9.54067509e-04     0.00000000e+00    
           2.84259650e-03     9.46642598e-04     0.00000000e+00    
           2.86736223e-03     9.44876636e-04     0.00000000e+00    
           2.89168465e-03     9.49417532e-04     0.00000000e+00    
           2.91386177e-03     9.59805329e-04     0.00000000e+00    
           8.97305494e-04    -2.82299989e-05     0.00000000e+00    
           9.05596011e-04    -3.73459511e-06     0.00000000e+00    
           9.06490139e-04     2.22278977e-05     0.00000000e+00    
           8.99331586e-04     4.75859852e-05     0.00000000e+00    
           8.85143469e-04     6.95139752e-05     0.00000000e+00    
           2.07110750e-03     5.94123376e-05     0.00000000e+00    
           2.09904695e-03     7.22600671e-05     0.00000000e+00    
           2.12267623e-03     9.20092425e-05     0.00000000e+00    
           2.14001234e-03     1.17417927e-04     0.00000000e+00    
           2.14958424e-03     1.46827661e-04     0.00000000e+00    
           2.15066690e-03     1.78336486e-04     0.00000000e+00    
           2.14291853e-03     2.08317360e-04     0.00000000e+00    
           2.12862017e-03     2.35701475e-04     0.00000000e+00    
           2.10782490e-03     2.58234359e-04     0.00000000e+00    
           2.08130083e-03     2.73822370e-04     0.00000000e+00    
           2.05165101e-03     2.82545137e-04     0.00000000e+00    
           1.99085870e-03     2.77832296e-04     0.00000000e+00    
           1.96326291e-03     2.64360831e-04     0.00000000e+00    
           1.93999487e-03     2.44247611e-04     0.00000000e+00    
           1.92298798e-03     2.18675370e-04     0.00000000e+00    
           1.91349955e-03     1.89520084e-04     0.00000000e+00    
           1.91196252e-03     1.58882103e-04     0.00000000e+00    
           1.91877584e-03     1.28831103e-04     0.00000000e+00    
           1.93409284e-03     1.01625221e-04     0.00000000e+00    
           1.95588591e-03     8.04723386e-05     0.00000000e+00    
           1.98155129e-03     6.55319163e-05     0.00000000e+00    
           2.01029517e-03     5.63772046e-05     0.00000000e+00    
           3.76744079e-03     8.73878598e-04     0.00000000e+00    
           3.78423277e-03     9.05911147e-04     0.00000000e+00    
           3.79239861e-03     9.41298553e-04     0.00000000e+00    
           3.79095832e-03     9.77376243e-04     0.00000000e+00    
           3.78018804e-03     1.01192517e-03     0.00000000e+00    
           3.76075320e-03     1.04227848e-03     0.00000000e+00    
           3.73463798e-03     1.06600893e-03     0.00000000e+00    
           3.70387826e-03     1.08357763e-03     0.00000000e+00    
           3.66940210e-03     1.09466899e-03     0.00000000e+00    
           3.59750143e-03     1.09093788e-03     0.00000000e+00    
           3.56452144e-03     1.07633416e-03     0.00000000e+00    
           3.53623345e-03     1.05409557e-03     0.00000000e+00    
           3.51449498e-03     1.02551747e-03     0.00000000e+00    
           3.50045646e-03     9.92382760e-04     0.00000000e+00    
           3.49588203e-03     9.56581440e-04     0.00000000e+00    
           3.50062223e-03     9.20735532e-04     0.00000000e+00    
           3.51461000e-03     8.87489936e-04     0.00000000e+00    
           3.53564764e-03     8.58154555e-04     0.00000000e+00    
           1.54222769e-03     8.21581576e-04     0.00000000e+00    
           1.57318870e-03     8.13771097e-04     0.00000000e+00    
           1.60503201e-03     8.12228827e-04     0.00000000e+00    
           1.63661782e-03     8.17494933e-04     0.00000000e+00    
           1.66653679e-03     8.29082506e-04     0.00000000e+00    
           2.26123980e-03     7.76903238e-04     0.00000000e+00    
           2.29321932e-03     7.90924300e-04     0.00000000e+00    
           2.32082908e-03     8.11828126e-04     0.00000000e+00    
           2.34284857e-03     8.38712091e-04     0.00000000e+00    
           2.35753413e-03     8.70217162e-04     0.00000000e+00    
           2.36376096e-03     9.04832268e-04     0.00000000e+00    
           2.36057467e-03     9.39826423e-04     0.00000000e+00    
           2.34919181e-03     9.73155373e-04     0.00000000e+00    
           2.33057328e-03     1.00276689e-03     0.00000000e+00    
           2.30499264e-03     1.02687080e-03     0.00000000e+00    
           2.27395608e-03     1.04363868e-03     0.00000000e+00    
           2.24045361e-03     1.05281756e-03     0.00000000e+00    
           2.17124238e-03     1.04883104e-03     0.00000000e+00    
           2.13887589e-03     1.03514607e-03     0.00000000e+00    
           2.11082911e-03     1.01401366e-03     0.00000000e+00    
           2.08882708e-03     9.86523344e-04     0.00000000e+00    
           2.07454455e-03     9.54313553e-04     0.00000000e+00    
           2.06912612e-03     9.19331331e-04     0.00000000e+00    
           2.07180297e-03     8.84501729e-04     0.00000000e+00    
           2.08286918e-03     8.51410325e-04     0.00000000e+00    
           2.10210588e-03     8.22170405e-04     0.00000000e+00    
           2.12811073e-03     7.98930123e-04     0.00000000e+00    
           2.15867278e-03     7.82361778e-04     0.00000000e+00    
           2.19204370e-03     7.72824162e-04     0.00000000e+00    
           3.29052238e-03     8.88612412e-04     0.00000000e+00    
           3.31469742e-03     9.01401276e-04     0.00000000e+00    
           3.33415484e-03     9.20535007e-04     0.00000000e+00    
           3.34745646e-03     9.44321800e-04     0.00000000e+00    
           3.35304975e-03     9.71057627e-04     0.00000000e+00    
           3.35045834e-03     9.98639036e-04     0.00000000e+00    
           3.33922985e-03     1.02434645e-03     0.00000000e+00    
           3.32089281e-03     1.04533066e-03     0.00000000e+00    
           3.29782651e-03     1.06041227e-03     0.00000000e+00    
           3.27177672e-03     1.06918754e-03     0.00000000e+00    
           3.21717234e-03     1.06522779e-03     0.00000000e+00    
           3.19298194e-03     1.05210254e-03     0.00000000e+00    
           3.17368098e-03     1.03262044e-03     0.00000000e+00    
           3.16085503e-03     1.00821629e-03     0.00000000e+00    
           3.15617328e-03     9.81270801e-04     0.00000000e+00    
           3.15899053e-03     9.54122981e-04     0.00000000e+00    
           3.16952239e-03     9.28952591e-04     0.00000000e+00    
           3.18776770e-03     9.08423157e-04     0.00000000e+00    
           3.21018393e-03     8.93995981e-04     0.00000000e+00    
           3.23598110e-03     8.84919253e-04     0.00000000e+00    
           1.75818300e-03     2.95170321e-04     0.00000000e+00    
           1.79036194e-03     3.10196483e-04     0.00000000e+00    
           1.81739044e-03     3.33374570e-04     0.00000000e+00    
           1.83676579e-03     3.62817314e-04     0.00000000e+00    
           1.84806413e-03     3.95958137e-04     0.00000000e+00    
           1.85069896e-03     4.30814282e-04     0.00000000e+00    
           1.84393942e-03     4.65054036e-04     0.00000000e+00    
           1.82724709e-03     4.96666587e-04     0.00000000e+00    
           1.80233386e-03     5.21273061e-04     0.00000000e+00    
           1.77290512e-03     5.39250439e-04     0.00000000e+00    
           1.73963164e-03     5.50500350e-04     0.00000000e+00    
           1.66936137e-03     5.47663367e-04     0.00000000e+00    
           1.63700478e-03     5.32867562e-04     0.00000000e+00    
           1.60973589e-03     5.10281650e-04     0.00000000e+00    
           1.58944458e-03     4.81392897e-04     0.00000000e+00    
           1.57756382e-03     4.48202889e-04     0.00000000e+00    
           1.57506764e-03     4.12821799e-04     0.00000000e+00    
           1.58267992e-03     3.77881253e-04     0.00000000e+00    
           1.59975991e-03     3.46302462e-04     0.00000000e+00    
           1.62476918e-03     3.21079395e-04     0.00000000e+00    
           1.65459898e-03     3.02538130e-04     0.00000000e+00    
           1.68795895e-03     2.91766162e-04     0.00000000e+00    
           5.89932257e-04     3.78224155e-04     0.00000000e+00    
           5.75579761e-04     3.52125819e-04     0.00000000e+00    
           5.68835589e-04     3.22678738e-04     0.00000000e+00    
           5.70323609e-04     2.92316952e-04     0.00000000e+00    
           5.78898937e-04     2.63532711e-04     0.00000000e+00    
           5.94437181e-04     2.37858359e-04     0.00000000e+00    
           6.16511097e-04     2.17591107e-04     0.00000000e+00    
           6.42404077e-04     2.03824660e-04     0.00000000e+00    
           6.70655223e-04     1.95216111e-04     0.00000000e+00    
           7.29917665e-04     1.98888549e-04     0.00000000e+00    
           7.56912807e-04     2.11645427e-04     0.00000000e+00    
           7.79726368e-04     2.30788850e-04     0.00000000e+00    
           7.97060260e-04     2.54996266e-04     0.00000000e+00    
           8.07473785e-04     2.82427180e-04     0.00000000e+00    
           8.11003498e-04     3.11505777e-04     0.00000000e+00    
           8.06758355e-04     3.40675499e-04     0.00000000e+00    
           7.94772641e-04     3.67504195e-04     0.00000000e+00    
           7.75979250e-04     3.90275934e-04     0.00000000e+00    
           2.77552777e-03     4.19588905e-04     0.00000000e+00    
           2.74609053e-03     4.25297592e-04     0.00000000e+00    
           2.71555828e-03     4.24186874e-04     0.00000000e+00    
           2.68635969e-03     4.15533897e-04     0.00000000e+00    
           1.16405345e-03     4.32597095e-04     0.00000000e+00    
           1.18923595e-03     4.43996454e-04     0.00000000e+00    
           1.21046079e-03     4.61604941e-04     0.00000000e+00    
           1.22617010e-03     4.84136341e-04     0.00000000e+00    
           1.23504258e-03     5.10525133e-04     0.00000000e+00    
           1.23623153e-03     5.38778317e-04     0.00000000e+00    
           1.22948806e-03     5.66494360e-04     0.00000000e+00    
           1.21543230e-03     5.91249962e-04     0.00000000e+00    
           1.19491690e-03     6.10998715e-04     0.00000000e+00    
           1.17072673e-03     6.24975946e-04     0.00000000e+00    
           1.14419975e-03     6.32656389e-04     0.00000000e+00    
           1.08946674e-03     6.27912290e-04     0.00000000e+00    
           1.06490287e-03     6.15075987e-04     0.00000000e+00    
           1.04462227e-03     5.96483296e-04     0.00000000e+00    
           1.02981331e-03     5.73476194e-04     0.00000000e+00    
           1.02146249e-03     5.47389267e-04     0.00000000e+00    
           1.02040055e-03     5.20137197e-04     0.00000000e+00    
           1.02698593e-03     4.93366912e-04     0.00000000e+00    
           1.04080164e-03     4.70123894e-04     0.00000000e+00    
           1.06031680e-03     4.51510656e-04     0.00000000e+00    