<?xml version="1.0"?>
<VTKFile type="UnstructuredGrid" version="0.1">
  <UnstructuredGrid>
    <Piece NumberOfPoints="1034" NumberOfCells="1614">
      <Points>
        <DataArray type="Float32" NumberOfComponents="3">
           5.21582007e-01     5.11657000e-01     0.00000000e+00    
           5.07319987e-01     5.11657000e-01     0.00000000e+00    
           4.65243995e-01     5.17907977e-01     0.00000000e+00    
           4.65243995e-01     5.04921973e-01     0.00000000e+00    
           4.75246996e-01     5.11415005e-01     0.00000000e+00    
           5.33852994e-01     5.04921973e-01     0.00000000e+00    
           5.33852994e-01     5.17907977e-01     0.00000000e+00    
           4.83779997e-01     5.34618974e-01     0.00000000e+00    
           4.68984991e-01     5.34618974e-01     0.00000000e+00    
           4.76381987e-01     5.23841977e-01     0.00000000e+00    
           4.68984991e-01     4.66010004e-01     0.00000000e+00    
           4.83779997e-01     4.66010004e-01     0.00000000e+00    
           4.99920011e-01     5.34618974e-01     0.00000000e+00    
           4.89203990e-01     5.34618974e-01     0.00000000e+00    
           4.94562000e-01     5.22280991e-01     0.00000000e+00    
           4.89203990e-01     4.66010004e-01     0.00000000e+00    
           4.99920011e-01     4.66010004e-01     0.00000000e+00    
           5.32517016e-01     4.74112004e-01     0.00000000e+00    
           5.17961025e-01     4.74112004e-01     0.00000000e+00    
           5.33852994e-01     5.19801974e-01     0.00000000e+00    
           5.33852994e-01     5.29603004e-01     0.00000000e+00    
           5.19536972e-01     5.24702013e-01     0.00000000e+00    
           4.65243995e-01     5.29603004e-01     0.00000000e+00    
           4.65243995e-01     5.19801974e-01     0.00000000e+00    
           4.92487997e-01     5.17117977e-01     0.00000000e+00    
           4.76904988e-01     5.17117977e-01     0.00000000e+00    
           5.17996013e-01     5.27033985e-01     0.00000000e+00    
           5.04473984e-01     5.27033985e-01     0.00000000e+00    
           5.08446991e-01     4.83435005e-01     0.00000000e+00    
           4.94414002e-01     4.83435005e-01     0.00000000e+00    
           4.65243995e-01     4.83101994e-01     0.00000000e+00    
           4.65243995e-01     4.74415004e-01     0.00000000e+00    
           4.78336990e-01     4.78758007e-01     0.00000000e+00    
           5.33852994e-01     4.74415004e-01     0.00000000e+00    
           5.33852994e-01     4.83101994e-01     0.00000000e+00    
           4.80668008e-01     4.95810986e-01     0.00000000e+00    
           4.66084987e-01     4.95810986e-01     0.00000000e+00    
           4.93930012e-01     4.79214013e-01     0.00000000e+00    
           4.78967011e-01     4.79214013e-01     0.00000000e+00    
           5.09284973e-01     4.97658014e-01     0.00000000e+00    
           4.95503992e-01     4.97658014e-01     0.00000000e+00    
           5.33011973e-01     5.01751006e-01     0.00000000e+00    
           5.17829001e-01     5.01751006e-01     0.00000000e+00    
           4.95451003e-01     5.00564992e-01     0.00000000e+00    
           4.80922014e-01     5.00564992e-01     0.00000000e+00    
           5.25367022e-01     4.88312006e-01     0.00000000e+00    
           5.09521008e-01     4.88312006e-01     0.00000000e+00    
           4.65243995e-01     5.34618974e-01     0.00000000e+00    
           4.65243995e-01     4.66010004e-01     0.00000000e+00    
           5.33852994e-01     4.66010004e-01     0.00000000e+00    
           5.33852994e-01     5.34618974e-01     0.00000000e+00    
           5.21338999e-01     5.13502657e-01     0.00000000e+00    
           5.20626605e-01     5.15222490e-01     0.00000000e+00    
           5.19493401e-01     5.16699374e-01     0.00000000e+00    
           5.18016517e-01     5.17832637e-01     0.00000000e+00    
           5.16296625e-01     5.18545032e-01     0.00000000e+00    
           5.14451027e-01     5.18787980e-01     0.00000000e+00    
           5.12605369e-01     5.18545032e-01     0.00000000e+00    
           5.10885477e-01     5.17832637e-01     0.00000000e+00    
           5.09408593e-01     5.16699374e-01     0.00000000e+00    
           5.08275390e-01     5.15222490e-01     0.00000000e+00    
           5.07562995e-01     5.13502657e-01     0.00000000e+00    
           5.07562995e-01     5.09811342e-01     0.00000000e+00    
           5.08275390e-01     5.08091509e-01     0.00000000e+00    
           5.09408593e-01     5.06614625e-01     0.00000000e+00    
           5.10885477e-01     5.05481362e-01     0.00000000e+00    
           5.12605369e-01     5.04768968e-01     0.00000000e+00    
           5.14451027e-01     5.04526019e-01     0.00000000e+00    
           5.16296625e-01     5.04768968e-01     0.00000000e+00    
           5.18016517e-01     5.05481362e-01     0.00000000e+00    
           5.19493401e-01     5.06614625e-01     0.00000000e+00    
           5.20626605e-01     5.08091509e-01     0.00000000e+00    
           5.21338999e-01     5.09811342e-01     0.00000000e+00    
           4.66931671e-01     5.04409373e-01     0.00000000e+00    
           4.68693614e-01     5.04328012e-01     0.00000000e+00    
           4.70421344e-01     5.04682958e-01     0.00000000e+00    
           4.72008497e-01     5.05452335e-01     0.00000000e+00    
           4.73357379e-01     5.06588817e-01     0.00000000e+00    
           4.74384934e-01     5.08022368e-01     0.00000000e+00    
           4.75027919e-01     5.09664834e-01     0.00000000e+00    
           4.75028187e-01     5.13165236e-01     0.00000000e+00    
           4.74385172e-01     5.14807761e-01     0.00000000e+00    
           4.73357558e-01     5.16241372e-01     0.00000000e+00    
           4.72008646e-01     5.17377913e-01     0.00000000e+00    
           4.70421433e-01     5.18147290e-01     0.00000000e+00    
           4.68693614e-01     5.18502235e-01     0.00000000e+00    
           4.66931641e-01     5.18420875e-01     0.00000000e+00    
           5.32303810e-01     5.16964078e-01     0.00000000e+00    
           5.31043947e-01     5.15658796e-01     0.00000000e+00    
           5.30155540e-01     5.14077127e-01     0.00000000e+00    
           5.29696345e-01     5.12322068e-01     0.00000000e+00    
           5.29696345e-01     5.10507941e-01     0.00000000e+00    
           5.30155540e-01     5.08752882e-01     0.00000000e+00    
           5.31043947e-01     5.07171214e-01     0.00000000e+00    
           5.32303810e-01     5.05865932e-01     0.00000000e+00    
           4.68517244e-01     5.32760799e-01     0.00000000e+00    
           4.68509018e-01     5.30844629e-01     0.00000000e+00    
           4.68960851e-01     5.28982460e-01     0.00000000e+00    
           4.69846308e-01     5.27283132e-01     0.00000000e+00    
           4.71113682e-01     5.25845945e-01     0.00000000e+00    
           4.72688884e-01     5.24754822e-01     0.00000000e+00    
           4.74479854e-01     5.24073541e-01     0.00000000e+00    
           4.78284091e-01     5.24073601e-01     0.00000000e+00    
           4.80075032e-01     5.24754822e-01     0.00000000e+00    
           4.81650203e-01     5.25845885e-01     0.00000000e+00    
           4.82917547e-01     5.27283013e-01     0.00000000e+00    
           4.83803004e-01     5.28982282e-01     0.00000000e+00    
           4.84254897e-01     5.30844331e-01     0.00000000e+00    
           4.84246761e-01     5.32760441e-01     0.00000000e+00    
           4.82887864e-01     4.67691004e-01     0.00000000e+00    
           4.81620818e-01     4.69110936e-01     0.00000000e+00    
           4.80051905e-01     4.70188022e-01     0.00000000e+00    
           4.78271484e-01     4.70860153e-01     0.00000000e+00    
           4.76382166e-01     4.71088618e-01     0.00000000e+00    
           4.74492878e-01     4.70860243e-01     0.00000000e+00    
           4.72712427e-01     4.70188200e-01     0.00000000e+00    
           4.71143454e-01     4.69111174e-01     0.00000000e+00    
           4.69876349e-01     4.67691302e-01     0.00000000e+00    
           4.88103986e-01     5.33086061e-01     0.00000000e+00    
           4.87431526e-01     5.31323195e-01     0.00000000e+00    
           4.87231195e-01     5.29447019e-01     0.00000000e+00    
           4.87516224e-01     5.27581930e-01     0.00000000e+00    
           4.88267750e-01     5.25851250e-01     0.00000000e+00    
           4.89436030e-01     5.24369657e-01     0.00000000e+00    
           4.90943670e-01     5.23235261e-01     0.00000000e+00    
           4.92690891e-01     5.22523046e-01     0.00000000e+00    
           4.96432930e-01     5.22523701e-01     0.00000000e+00    
           4.98180002e-01     5.23235798e-01     0.00000000e+00    
           4.99687493e-01     5.24370134e-01     0.00000000e+00    
           5.00855684e-01     5.25851607e-01     0.00000000e+00    
           5.01607120e-01     5.27582109e-01     0.00000000e+00    
           5.01892149e-01     5.29447079e-01     0.00000000e+00    
           5.01691818e-01     5.31323016e-01     0.00000000e+00    
           5.01019418e-01     5.33085763e-01     0.00000000e+00    
           4.98371124e-01     4.67269689e-01     0.00000000e+00    
           4.96539861e-01     4.68064904e-01     0.00000000e+00    
           4.94562000e-01     4.68336672e-01     0.00000000e+00    
           4.92584139e-01     4.68064904e-01     0.00000000e+00    
           4.90752876e-01     4.67269689e-01     0.00000000e+00    
           5.32269001e-01     4.75995690e-01     0.00000000e+00    
           5.31541944e-01     4.77750987e-01     0.00000000e+00    
           5.30385315e-01     4.79258329e-01     0.00000000e+00    
           5.28877974e-01     4.80414927e-01     0.00000000e+00    
[...]
      <PointData>
        <DataArray type="Float32" Name="Displacement" NumberOfComponents="3">
           2.43588840e-03     5.62212546e-04     0.00000000e+00    
           2.41645798e-03     6.91582332e-04     0.00000000e+00    
           1.22312922e-03     6.37112826e-04     0.00000000e+00    
           1.02244806e-03     6.22338383e-04     0.00000000e+00    
           1.13716233e-03     4.81772324e-04     0.00000000e+00    
           2.72244797e-03     6.22338383e-04     0.00000000e+00    
           2.92312936e-03     6.37112826e-04     0.00000000e+00    
           1.97004434e-03     7.63333053e-04     0.00000000e+00    
           1.94904627e-03     9.86917759e-04     0.00000000e+00    
           1.78954087e-03     8.62861809e-04     0.00000000e+00    
           2.49046279e-04     1.36917719e-04     0.00000000e+00    
           2.70044227e-04    -8.66669507e-05     0.00000000e+00    
           2.33746204e-03     7.47680082e-04     0.00000000e+00    
           2.32053129e-03     8.57439125e-04     0.00000000e+00    
           2.19416921e-03     7.89430807e-04     0.00000000e+00    
           6.20531151e-04     7.43914143e-06     0.00000000e+00    
           6.37462130e-04    -1.02319929e-04     0.00000000e+00    
           1.68617629e-03     4.84174016e-05     0.00000000e+00    
           1.66656624e-03     2.36826090e-04     0.00000000e+00    
           2.92889820e-03     6.82929647e-04     0.00000000e+00    
           3.07962345e-03     6.94350048e-04     0.00000000e+00    
           2.98448396e-03     9.00765939e-04     0.00000000e+00    
           1.37962354e-03     6.94350048e-04     0.00000000e+00    
           1.22889807e-03     6.82929647e-04     0.00000000e+00    
           1.72428438e-03     5.60396526e-04     0.00000000e+00    
           1.70330354e-03     7.93318031e-04     0.00000000e+00    
           2.63464055e-03     6.92408998e-04     0.00000000e+00    
           2.61526974e-03     8.42216716e-04     0.00000000e+00    
           1.35396852e-03     1.93653657e-04     0.00000000e+00    
           1.33524369e-03     3.95748706e-04     0.00000000e+00    
           5.17704117e-04     2.83250643e-04     0.00000000e+00    
           3.89715511e-04     2.75106227e-04     0.00000000e+00    
           4.72340616e-04     9.20111706e-05     0.00000000e+00    
           2.08971556e-03     2.75106227e-04     0.00000000e+00    
           2.21770420e-03     2.83250643e-04     0.00000000e+00    
           8.88183655e-04     3.09280877e-04     0.00000000e+00    
           8.68291885e-04     4.98223002e-04     0.00000000e+00    
           7.97960034e-04     9.28535446e-05     0.00000000e+00    
           7.77468784e-04     2.65135430e-04     0.00000000e+00    
           1.64014404e-03     2.80857639e-04     0.00000000e+00    
           1.62020908e-03     4.70773055e-04     0.00000000e+00    
           2.39243801e-03     4.35610535e-04     0.00000000e+00    
           2.37120129e-03     5.75336919e-04     0.00000000e+00    
           1.44781230e-03     3.93370952e-04     0.00000000e+00    
           1.42740330e-03     5.98411774e-04     0.00000000e+00    
           1.81898044e-03     2.27981538e-04     0.00000000e+00    
           1.79672323e-03     3.94004892e-04     0.00000000e+00    
           1.70000002e-03     8.50000011e-04     0.00000000e+00    
           0.00000000e+00     0.00000000e+00     0.00000000e+00    
           1.70000002e-03     0.00000000e+00     0.00000000e+00    
           3.40000005e-03     8.50000011e-04     0.00000000e+00    
           2.45323055e-03     5.66355418e-04     0.00000000e+00    
           2.46904418e-03     5.74368343e-04     0.00000000e+00    
           2.48212926e-03     5.86031645e-04     0.00000000e+00    
           2.49172840e-03     6.00757077e-04     0.00000000e+00    
           2.49666139e-03     6.17944985e-04     0.00000000e+00    
           2.49619456e-03     6.35990174e-04     0.00000000e+00    
           2.49124109e-03     6.53102528e-04     0.00000000e+00    
           2.48159515e-03     6.68144727e-04     0.00000000e+00    
           2.46738293e-03     6.79796911e-04     0.00000000e+00    
           2.45123473e-03     6.87272637e-04     0.00000000e+00    
           2.43415195e-03     6.91278372e-04     0.00000000e+00    
           2.39914493e-03     6.87586784e-04     0.00000000e+00    
           2.38339487e-03     6.79670717e-04     0.00000000e+00    
           2.37031467e-03     6.68008113e-04     0.00000000e+00    
           2.36078538e-03     6.53360737e-04     0.00000000e+00    
           2.35593785e-03     6.36419747e-04     0.00000000e+00    
           2.35641794e-03     6.18609076e-04     0.00000000e+00    
           2.36218260e-03     6.01796899e-04     0.00000000e+00    
           2.37268046e-03     5.87069022e-04     0.00000000e+00    
           2.38571176e-03     5.74478414e-04     0.00000000e+00    
           2.40108441e-03     5.65700582e-04     0.00000000e+00    
           2.41788104e-03     5.61746943e-04     0.00000000e+00    
           1.01669319e-03     5.95795747e-04     0.00000000e+00    
           1.01815385e-03     5.68944146e-04     0.00000000e+00    
           1.02622109e-03     5.43310540e-04     0.00000000e+00    
           1.04105379e-03     5.20758098e-04     0.00000000e+00    
           1.06154208e-03     5.02982351e-04     0.00000000e+00    
           1.08492142e-03     4.90437087e-04     0.00000000e+00    
           1.11040729e-03     4.83279728e-04     0.00000000e+00    
           1.16366136e-03     4.86412173e-04     0.00000000e+00    
           1.18824083e-03     4.97275905e-04     0.00000000e+00    
           1.20919093e-03     5.13833365e-04     0.00000000e+00    
           1.22542726e-03     5.34977415e-04     0.00000000e+00    
           1.23556436e-03     5.59658103e-04     0.00000000e+00    
           1.23872596e-03     5.86470938e-04     0.00000000e+00    
           1.23403803e-03     6.12708332e-04     0.00000000e+00    
           2.90670083e-03     6.59345591e-04     0.00000000e+00    
           2.88491254e-03     6.76024763e-04     0.00000000e+00    
           2.85932096e-03     6.86284504e-04     0.00000000e+00    
           2.83209048e-03     6.90816902e-04     0.00000000e+00    
           2.80460319e-03     6.88936969e-04     0.00000000e+00    
           2.77825957e-03     6.80563622e-04     0.00000000e+00    
           2.75476533e-03     6.66205015e-04     0.00000000e+00    
           2.73576425e-03     6.46374363e-04     0.00000000e+00    
           1.91987271e-03     9.91593814e-04     0.00000000e+00    
           1.89028843e-03     9.89948516e-04     0.00000000e+00    
           1.86173758e-03     9.81616788e-04     0.00000000e+00    
           1.83601084e-03     9.66718071e-04     0.00000000e+00    
           1.81468099e-03     9.46109649e-04     0.00000000e+00    
           1.79921428e-03     9.20967839e-04     0.00000000e+00    
           1.79070467e-03     8.92630778e-04     0.00000000e+00    
           1.79665594e-03     8.33667116e-04     0.00000000e+00    
           1.81000761e-03     8.06961092e-04     0.00000000e+00    
           1.82936026e-03     7.84237054e-04     0.00000000e+00    
           1.85422541e-03     7.67152000e-04     0.00000000e+00    
           1.88245892e-03     7.56517693e-04     0.00000000e+00    
           1.91185810e-03     7.52198044e-04     0.00000000e+00    
           1.94160582e-03     7.54309760e-04     0.00000000e+00    
           2.95291684e-04    -7.13782356e-05     0.00000000e+00    
           3.16188118e-04    -5.05751741e-05     0.00000000e+00    
           3.31176125e-04    -2.52318332e-05     0.00000000e+00    
           3.39343911e-04     3.05760841e-06     0.00000000e+00    
           3.39862192e-04     3.27453017e-05     0.00000000e+00    
           3.33395525e-04     6.14481323e-05     0.00000000e+00    
           3.20348947e-04     8.78033752e-05     0.00000000e+00    
           3.00616375e-04     1.09703637e-04     0.00000000e+00    
           2.75997067e-04     1.26140643e-04     0.00000000e+00    
           2.30272510e-03     8.66270100e-04     0.00000000e+00    
           2.28343112e-03     8.71016586e-04     0.00000000e+00    
           2.26322049e-03     8.71393306e-04     0.00000000e+00    
           2.24362127e-03     8.66720278e-04     0.00000000e+00    
           2.22608726e-03     8.57539999e-04     0.00000000e+00    
           2.21150392e-03     8.44418071e-04     0.00000000e+00    
           2.20075506e-03     8.28081917e-04     0.00000000e+00    
           2.19444581e-03     8.09607503e-04     0.00000000e+00    
           2.20006565e-03     7.69386650e-04     0.00000000e+00    
           2.21167970e-03     7.52193038e-04     0.00000000e+00    
           2.22711707e-03     7.38959294e-04     0.00000000e+00    
           2.24481290e-03     7.29316089e-04     0.00000000e+00    
           2.26412201e-03     7.23412319e-04     0.00000000e+00    
           2.28450890e-03     7.22132449e-04     0.00000000e+00    
           2.30439752e-03     7.26031605e-04     0.00000000e+00    
           2.32240045e-03     7.34688074e-04     0.00000000e+00    
           6.49189344e-04    -8.50445358e-05     0.00000000e+00    
           6.55629265e-04    -6.51904629e-05     0.00000000e+00    
           6.55958080e-04    -4.42279197e-05     0.00000000e+00    
           6.49449241e-04    -2.38026405e-05     0.00000000e+00    
           6.37109391e-04    -6.28719772e-06     0.00000000e+00    
           1.71120011e-03     5.30760226e-05     0.00000000e+00    
           1.73422915e-03     6.38763668e-05     0.00000000e+00    
           1.75365270e-03     8.03676376e-05     0.00000000e+00    
           1.76762615e-03     1.01725149e-04     0.00000000e+00    
           1.77499792e-03     1.26139319e-04     0.00000000e+00    
           1.77527464e-03     1.52036606e-04     0.00000000e+00    
           1.76828797e-03     1.76555841e-04     0.00000000e+00    
           1.75610976e-03     1.98903916e-04     0.00000000e+00    
           1.73873594e-03     2.16944056e-04     0.00000000e+00    
           1.71661249e-03     2.29157973e-04     0.00000000e+00    
           1.69192650e-03     2.35961052e-04     0.00000000e+00    
           1.64159923e-03     2.31705882e-04     0.00000000e+00    
           1.61880860e-03     2.20556482e-04     0.00000000e+00    
           1.59959111e-03     2.03948526e-04     0.00000000e+00    
           1.58560020e-03     1.82760588e-04     0.00000000e+00    
           1.57796138e-03     1.58532683e-04     0.00000000e+00    
           1.57703995e-03     1.33123802e-04     0.00000000e+00    
           1.58316398e-03     1.08286637e-04     0.00000000e+00    
           1.59652520e-03     8.59476495e-05     0.00000000e+00    
           1.61523896e-03     6.88918226e-05     0.00000000e+00    
           1.63698103e-03     5.70152843e-05     0.00000000e+00    
           1.66092755e-03     4.99863454e-05     0.00000000e+00    
           3.09977238e-03     7.16731418e-04     0.00000000e+00    
           3.11363256e-03     7.43458862e-04     0.00000000e+00    
           3.12020304e-03     7.73026899e-04     0.00000000e+00    
           3.11853387e-03     8.03099771e-04     0.00000000e+00    
           3.10893334e-03     8.31722806e-04     0.00000000e+00    
           3.09204916e-03     8.56614613e-04     0.00000000e+00    
           3.06974282e-03     8.75743455e-04     0.00000000e+00    
           3.04379035e-03     8.89892166e-04     0.00000000e+00    
           3.01483995e-03     8.98866623e-04     0.00000000e+00    
           2.95464462e-03     8.95411940e-04     0.00000000e+00    
           2.92711658e-03     8.83133675e-04     0.00000000e+00    
           2.90357065e-03     8.64535628e-04     0.00000000e+00    
           2.88554281e-03     8.40707915e-04     0.00000000e+00    
           2.87399883e-03     8.13095830e-04     0.00000000e+00    
           2.87049543e-03     7.83274940e-04     0.00000000e+00    
           2.87488499e-03     7.53451895e-04     0.00000000e+00    
           2.88722827e-03     7.25890859e-04     0.00000000e+00    
           2.90531386e-03     7.01577053e-04     0.00000000e+00    
           1.25341874e-03     6.71842310e-04     0.00000000e+00    
           1.27950485e-03     6.65689120e-04     0.00000000e+00    
           1.30618375e-03     6.64732303e-04     0.00000000e+00    
           1.33251597e-03     6.69424539e-04     0.00000000e+00    
           1.35746715e-03     6.79249351e-04     0.00000000e+00    
           1.75281626e-03     5.65664843e-04     0.00000000e+00    
           1.77918945e-03     5.77423954e-04     0.00000000e+00    
           1.80189009e-03     5.94778627e-04     0.00000000e+00    
           1.81990664e-03     6.17017678e-04     0.00000000e+00    
           1.83181209e-03     6.42997271e-04     0.00000000e+00    
           1.83666428e-03     6.71507849e-04     0.00000000e+00    
           1.83352386e-03     7.00298056e-04     0.00000000e+00    
           1.82358630e-03     7.27700535e-04     0.00000000e+00    
           1.80775789e-03     7.51930231e-04     0.00000000e+00    
           1.78614864e-03     7.71446619e-04     0.00000000e+00    
           1.76003657e-03     7.84814707e-04     0.00000000e+00    
           1.73212029e-03     7.91921397e-04     0.00000000e+00    
           1.67485583e-03     7.88035220e-04     0.00000000e+00    
           1.64817378e-03     7.76563422e-04     0.00000000e+00    
           1.62511319e-03     7.59024464e-04     0.00000000e+00    
           1.60708243e-03     7.36301648e-04     0.00000000e+00    
           1.59554777e-03     7.09661574e-04     0.00000000e+00    
           1.59151747e-03     6.80732192e-04     0.00000000e+00    
           1.59414543e-03     6.51995593e-04     0.00000000e+00    
           1.60371163e-03     6.24941487e-04     0.00000000e+00    
           1.62009627e-03     6.01265347e-04     0.00000000e+00    
           1.64206093e-03     5.82607056e-04     0.00000000e+00    
           1.66768383e-03     5.69397700e-04     0.00000000e+00    
           1.69546506e-03     5.61874418e-04     0.00000000e+00    
           2.65637576e-03     6.97084877e-04     0.00000000e+00    
           2.67578615e-03     7.07458821e-04     0.00000000e+00    
           2.69130408e-03     7.22857891e-04     0.00000000e+00    
           2.70180707e-03     7.41928292e-04     0.00000000e+00    
           2.70596426e-03     7.63329444e-04     0.00000000e+00    
           2.70340149e-03     7.85428740e-04     0.00000000e+00    
           2.69356417e-03     8.05880874e-04     0.00000000e+00    
           2.67803762e-03     8.22327391e-04     0.00000000e+00    
           2.65896320e-03     8.34008213e-04     0.00000000e+00    
           2.63765943e-03     8.40882305e-04     0.00000000e+00    
           2.59345234e-03     8.37345957e-04     0.00000000e+00    
           2.57406314e-03     8.26632138e-04     0.00000000e+00    
           2.55874987e-03     8.10866710e-04     0.00000000e+00    
           2.54875980e-03     7.91224767e-04     0.00000000e+00    
           2.54553370e-03     7.69576582e-04     0.00000000e+00    
           2.54833582e-03     7.47678976e-04     0.00000000e+00    
           2.55745486e-03     7.27634586e-04     0.00000000e+00    
           2.57292320e-03     7.11628410e-04     0.00000000e+00    
           2.59136944e-03     7.00619363e-04     0.00000000e+00    
           2.61234236e-03     6.93690788e-04     0.00000000e+00    
           1.38106383e-03     1.98554131e-04     0.00000000e+00    
           1.40585215e-03     2.10186656e-04     0.00000000e+00    
           1.42667408e-03     2.28254008e-04     0.00000000e+00    
           1.44127489e-03     2.51361169e-04     0.00000000e+00    
           1.44948589e-03     2.77110725e-04     0.00000000e+00    
           1.45098788e-03     3.03919689e-04     0.00000000e+00    
           1.44519599e-03     3.30021692e-04     0.00000000e+00    
           1.43143162e-03     3.53936426e-04     0.00000000e+00    
           1.41141645e-03     3.72025272e-04     0.00000000e+00    
           1.38835877e-03     3.85199121e-04     0.00000000e+00    
           1.36244739e-03     3.93610331e-04     0.00000000e+00    
           1.30793010e-03     3.91182082e-04     0.00000000e+00    
           1.28297764e-03     3.79595382e-04     0.00000000e+00    
           1.26209448e-03     3.62007617e-04     0.00000000e+00    
           1.24672009e-03     3.39651277e-04     0.00000000e+00    
           1.23792666e-03     3.14071280e-04     0.00000000e+00    
           1.23652839e-03     2.86831782e-04     0.00000000e+00    
           1.24318583e-03     2.60033179e-04     0.00000000e+00    
           1.25727011e-03     2.36173393e-04     0.00000000e+00    
           1.27732055e-03     2.17448236e-04     0.00000000e+00    
           1.30064320e-03     2.03703923e-04     0.00000000e+00    
           1.32658123e-03     1.95728120e-04     0.00000000e+00    
           3.71579081e-04     2.55748135e-04     0.00000000e+00    
           3.58924939e-04     2.32353166e-04     0.00000000e+00    
           3.53171083e-04     2.06127894e-04     0.00000000e+00    
           3.54779389e-04     1.79091527e-04     0.00000000e+00    
           3.62665131e-04     1.53479254e-04     0.00000000e+00    
           3.76844051e-04     1.30756918e-04     0.00000000e+00    
           3.96917574e-04     1.13042719e-04     0.00000000e+00    
           4.20264696e-04     1.01173959e-04     0.00000000e+00    
           4.45583166e-04     9.36613724e-05     0.00000000e+00    
           4.98740992e-04     9.70633846e-05     0.00000000e+00    
           5.22976043e-04     1.08424458e-04     0.00000000e+00    
           5.43454313e-04     1.25498933e-04     0.00000000e+00    
           5.59009262e-04     1.47101440e-04     0.00000000e+00    
           5.68362360e-04     1.71604232e-04     0.00000000e+00    
           5.71463956e-04     1.97593501e-04     0.00000000e+00    
           5.67479525e-04     2.23685085e-04     0.00000000e+00    
           5.56395389e-04     2.47679127e-04     0.00000000e+00    
           5.39049390e-04     2.67905009e-04     0.00000000e+00    
           2.19307421e-03     2.93648220e-04     0.00000000e+00    
           2.16650125e-03     2.98535160e-04     0.00000000e+00    
           2.13911501e-03     2.97399412e-04     0.00000000e+00    
           2.11295905e-03     2.89500604e-04     0.00000000e+00    
           9.13675874e-04     3.13459837e-04     0.00000000e+00    
           9.37008765e-04     3.24044260e-04     0.00000000e+00    
           9.56642441e-04     3.40431667e-04     0.00000000e+00    
           9.71071946e-04     3.61354818e-04     0.00000000e+00    
           9.79160424e-04     3.85626598e-04     0.00000000e+00    
           9.80140525e-04     4.11590881e-04     0.00000000e+00    
           9.73765680e-04     4.37094306e-04     0.00000000e+00    
           9.60456557e-04     4.59858828e-04     0.00000000e+00    
           9.41046746e-04     4.77853231e-04     0.00000000e+00    
           9.18470672e-04     4.90438542e-04     0.00000000e+00    
           8.93896329e-04     4.97222878e-04     0.00000000e+00    
           8.43270391e-04     4.92758001e-04     0.00000000e+00    
           8.20543908e-04     4.80990537e-04     0.00000000e+00    
           8.01700691e-04     4.63947421e-04     0.00000000e+00    
           7.87903555e-04     4.42799530e-04     0.00000000e+00    
           7.80079223e-04     4.18799347e-04     0.00000000e+00    
           7.79099762e-04     3.93656315e-04     0.00000000e+00    
           7.85327575e-04     3.68920591e-04     0.00000000e+00    
           7.98403227e-04     3.47576541e-04     0.00000000e+00    
           8.16799467e-04     3.30604991e-04     0.00000000e+00    