<?xml version="1.0"?>
<VTKFile type="UnstructuredGrid" version="0.1">
  <UnstructuredGrid>
    <Piece NumberOfPoints="1034" NumberOfCells="1614">
      <Points>
        <DataArray type="Float32" NumberOfComponents="3">
           5.21582007e-01     5.11657000e-01     0.00000000e+00    
           5.07319987e-01     5.11657000e-01     0.00000000e+00    
           4.65243995e-01     5.17907977e-01     0.00000000e+00    
           4.65243995e-01     5.04921973e-01     0.00000000e+00    
           4.75246996e-01     5.11415005e-01     0.00000000e+00    
           5.33852994e-01     5.04921973e-01     0.00000000e+00    
           5.33852994e-01     5.17907977e-01     0.00000000e+00    
           4.83779997e-01     5.34618974e-01     0.00000000e+00    
           4.68984991e-01     5.34618974e-01     0.00000000e+00    
           4.76381987e-01     5.23841977e-01     0.00000000e+00    
           4.68984991e-01     4.66010004e-01     0.00000000e+00    
           4.83779997e-01     4.66010004e-01     0.00000000e+00    
           4.99920011e-01     5.34618974e-01     0.00000000e+00    
           4.89203990e-01     5.34618974e-01     0.00000000e+00    
           4.94562000e-01     5.22280991e-01     0.00000000e+00    
           4.89203990e-01     4.66010004e-01     0.00000000e+00    
           4.99920011e-01     4.66010004e-01     0.00000000e+00    
           5.32517016e-01     4.74112004e-01     0.00000000e+00    
           5.17961025e-01     4.74112004e-01     0.00000000e+00    
           5.33852994e-01     5.19801974e-01     0.00000000e+00    
           5.33852994e-01     5.29603004e-01     0.00000000e+00    
           5.19536972e-01     5.24702013e-01     0.00000000e+00    
           4.65243995e-01     5.29603004e-01     0.00000000e+00    
           4.65243995e-01     5.19801974e-01     0.00000000e+00    
           4.92487997e-01     5.17117977e-01     0.00000000e+00    
           4.76904988e-01     5.17117977e-01     0.00000000e+00    
           5.17996013e-01     5.27033985e-01     0.00000000e+00    
           5.04473984e-01     5.27033985e-01     0.00000000e+00    
           5.08446991e-01     4.83435005e-01     0.00000000e+00    
           4.94414002e-01     4.83435005e-01     0.00000000e+00    
           4.65243995e-01     4.83101994e-01     0.00000000e+00    
           4.65243995e-01     4.74415004e-01     0.00000000e+00    
           4.78336990e-01     4.78758007e-01     0.00000000e+00    
           5.33852994e-01     4.74415004e-01     0.00000000e+00    
           5.33852994e-01     4.83101994e-01     0.00000000e+00    
           4.80668008e-01     4.95810986e-01     0.00000000e+00    
           4.66084987e-01     4.95810986e-01     0.00000000e+00    
           4.93930012e-01     4.79214013e-01     0.00000000e+00    
           4.78967011e-01     4.79214013e-01     0.00000000e+00    
           5.09284973e-01     4.97658014e-01     0.00000000e+00    
           4.95503992e-01     4.97658014e-01     0.00000000e+00    
           5.33011973e-01     5.01751006e-01     0.00000000e+00    
           5.17829001e-01     5.01751006e-01     0.00000000e+00    
           4.95451003e-01     5.00564992e-01     0.00000000e+00    
           4.80922014e-01     5.00564992e-01     0.00000000e+00    
           5.25367022e-01     4.88312006e-01     0.00000000e+00    
           5.09521008e-01     4.88312006e-01     0.00000000e+00    
           4.65243995e-01     5.34618974e-01     0.00000000e+00    
           4.65243995e-01     4.66010004e-01     0.00000000e+00    
           5.33852994e-01     4.66010004e-01     0.00000000e+00    
           5.33852994e-01     5.34618974e-01     0.00000000e+00    
           5.21338999e-01     5.13502657e-01     0.00000000e+00    
           5.20626605e-01     5.15222490e-01     0.00000000e+00    
           5.19493401e-01     5.16699374e-01     0.00000000e+00    
           5.18016517e-01     5.17832637e-01     0.00000000e+00    
           5.16296625e-01     5.18545032e-01     0.00000000e+00    
           5.14451027e-01     5.18787980e-01     0.00000000e+00    
           5.12605369e-01     5.18545032e-01     0.00000000e+00    
           5.10885477e-01     5.17832637e-01     0.00000000e+00    
           5.09408593e-01     5.16699374e-01     0.00000000e+00    
           5.08275390e-01     5.15222490e-01     0.00000000e+00    
           5.07562995e-01     5.13502657e-01     0.00000000e+00    
           5.07562995e-01     5.09811342e-01     0.00000000e+00    
           5.08275390e-01     5.08091509e-01     0.00000000e+00    
           5.09408593e-01     5.06614625e-01     0.00000000e+00    
           5.10885477e-01     5.05481362e-01     0.00000000e+00    
           5.12605369e-01     5.04768968e-01     0.00000000e+00    
           5.14451027e-01     5.04526019e-01     0.00000000e+00    
           5.16296625e-01     5.04768968e-01     0.00000000e+00    
           5.18016517e-01     5.05481362e-01     0.00000000e+00    
           5.19493401e-01     5.06614625e-01     0.00000000e+00    
           5.20626605e-01     5.08091509e-01     0.00000000e+00    
           5.21338999e-01     5.09811342e-01     0.00000000e+00    
           4.66931671e-01     5.04409373e-01     0.00000000e+00    
           4.68693614e-01     5.04328012e-01     0.00000000e+00    
           4.70421344e-01     5.04682958e-01     0.00000000e+00    
           4.72008497e-01     5.05452335e-01     0.00000000e+00    
           4.73357379e-01     5.06588817e-01     0.00000000e+00    
           4.74384934e-01     5.08022368e-01     0.00000000e+00    
           4.75027919e-01     5.09664834e-01     0.00000000e+00    
           4.75028187e-01     5.13165236e-01     0.00000000e+00    
           4.74385172e-01     5.14807761e-01     0.00000000e+00    
           4.73357558e-01     5.16241372e-01     0.00000000e+00    
           4.72008646e-01     5.17377913e-01     0.00000000e+00    
           4.70421433e-01     5.18147290e-01     0.00000000e+00    
           4.68693614e-01     5.18502235e-01     0.00000000e+00    
           4.66931641e-01     5.18420875e-01     0.00000000e+00    
           5.32303810e-01     5.16964078e-01     0.00000000e+00    
           5.31043947e-01     5.15658796e-01     0.00000000e+00    
           5.30155540e-01     5.14077127e-01     0.00000000e+00    
           5.29696345e-01     5.12322068e-01     0.00000000e+00    
           5.29696345e-01     5.10507941e-01     0.00000000e+00    
           5.30155540e-01     5.08752882e-01     0.00000000e+00    
           5.31043947e-01     5.07171214e-01     0.00000000e+00    
           5.32303810e-01     5.05865932e-01     0.00000000e+00    
           4.68517244e-01     5.32760799e-01     0.00000000e+00    
           4.68509018e-01     5.30844629e-01     0.00000000e+00    
           4.68960851e-01     5.28982460e-01     0.00000000e+00    
           4.69846308e-01     5.27283132e-01     0.00000000e+00    
           4.71113682e-01     5.25845945e-01     0.00000000e+00    
           4.72688884e-01     5.24754822e-01     0.00000000e+00    
           4.74479854e-01     5.24073541e-01     0.00000000e+00    
           4.78284091e-01     5.24073601e-01     0.00000000e+00    
           4.80075032e-01     5.24754822e-01     0.00000000e+00    
           4.81650203e-01     5.25845885e-01     0.00000000e+00    
           4.82917547e-01     5.27283013e-01     0.00000000e+00    
           4.83803004e-01     5.28982282e-01     0.00000000e+00    
           4.84254897e-01     5.30844331e-01     0.00000000e+00    
           4.84246761e-01     5.32760441e-01     0.00000000e+00    
           4.82887864e-01     4.67691004e-01     0.00000000e+00    
           4.81620818e-01     4.69110936e-01     0.00000000e+00    
           4.80051905e-01     4.70188022e-01     0.00000000e+00    
           4.78271484e-01     4.70860153e-01     0.00000000e+00    
           4.76382166e-01     4.71088618e-01     0.00000000e+00    
           4.74492878e-01     4.70860243e-01     0.00000000e+00    
           4.72712427e-01     4.70188200e-01     0.00000000e+00    
           4.71143454e-01     4.69111174e-01     0.00000000e+00    
           4.69876349e-01     4.67691302e-01     0.00000000e+00    
           4.88103986e-01     5.33086061e-01     0.00000000e+00    
           4.87431526e-01     5.31323195e-01     0.00000000e+00    
           4.87231195e-01     5.29447019e-01     0.00000000e+00    
           4.87516224e-01     5.27581930e-01     0.00000000e+00    
           4.88267750e-01     5.25851250e-01     0.00000000e+00    
           4.89436030e-01     5.24369657e-01     0.00000000e+00    
           4.90943670e-01     5.23235261e-01     0.00000000e+00    
           4.92690891e-01     5.22523046e-01     0.00000000e+00    
           4.96432930e-01     5.22523701e-01     0.00000000e+00    
           4.98180002e-01     5.23235798e-01     0.00000000e+00    
           4.99687493e-01     5.24370134e-01     0.00000000e+00    
           5.00855684e-01     5.25851607e-01     0.00000000e+00    
           5.01607120e-01     5.27582109e-01     0.00000000e+00    
           5.01892149e-01     5.29447079e-01     0.00000000e+00    
           5.01691818e-01     5.31323016e-01     0.00000000e+00    
           5.01019418e-01     5.33085763e-01     0.00000000e+00    
           4.98371124e-01     4.67269689e-01     0.00000000e+00    
           4.96539861e-01     4.68064904e-01     0.00000000e+00    
           4.94562000e-01     4.68336672e-01     0.00000000e+00    
           4.92584139e-01     4.68064904e-01     0.00000000e+00    
           4.90752876e-01     4.67269689e-01     0.00000000e+00    
           5.32269001e-01     4.75995690e-01     0.00000000e+00    
           5.31541944e-01     4.77750987e-01     0.00000000e+00    
           5.30385315e-01     4.79258329e-01     0.00000000e+00    
           5.28877974e-01     4.80414927e-01     0.00000000e+00    
[...]
      <PointData>
        <DataArray type="Float32" Name="Displacement" NumberOfComponents="3">
           1.64528866e-03     3.78561002e-04     0.00000000e+00    
           1.62716350e-03     4.66778205e-04     0.00000000e+00    
           8.18044355e-04     4.33036766e-04     0.00000000e+00    
           6.90080924e-04     4.20301425e-04     0.00000000e+00    
           7.68473023e-04     3.36426077e-04     0.00000000e+00    
           1.84008095e-03     4.20301425e-04     0.00000000e+00    
           1.96804432e-03     4.33036766e-04     0.00000000e+00    
           1.31402782e-03     5.01562317e-04     0.00000000e+00    
           1.29370880e-03     6.58754958e-04     0.00000000e+00    
           1.18050340e-03     5.69323194e-04     0.00000000e+00    
           1.43708807e-04     8.37549451e-05     0.00000000e+00    
           1.64027821e-04    -7.34377027e-05     0.00000000e+00    
           1.53561740e-03     4.73576190e-04     0.00000000e+00    
           1.51911075e-03     5.38278196e-04     0.00000000e+00    
           1.44296500e-03     4.94574779e-04     0.00000000e+00    
           3.69110727e-04    -3.67217799e-05     0.00000000e+00    
           3.85617372e-04    -1.01423822e-04     0.00000000e+00    
           1.15303486e-03     4.48701176e-05     0.00000000e+00    
           1.13432109e-03     1.76417714e-04     0.00000000e+00    
           1.96744874e-03     4.66378639e-04     0.00000000e+00    
           2.06824741e-03     4.75488865e-04     0.00000000e+00    
           1.99788762e-03     6.07617258e-04     0.00000000e+00    
           9.18247388e-04     4.75488865e-04     0.00000000e+00    
           8.17448774e-04     4.66378639e-04     0.00000000e+00    
           1.13498326e-03     3.52044037e-04     0.00000000e+00    
           1.11468020e-03     5.18412213e-04     0.00000000e+00    
           1.78718625e-03     4.86942852e-04     0.00000000e+00    
           1.76722161e-03     5.66641800e-04     0.00000000e+00    
           9.00047540e-04     1.23624865e-04     0.00000000e+00    
           8.81362183e-04     2.51849357e-04     0.00000000e+00    
           3.40507919e-04     1.94285152e-04     0.00000000e+00    
           2.49112345e-04     1.86952209e-04     0.00000000e+00    
           3.13338445e-04     6.03478766e-05     0.00000000e+00    
           1.39911240e-03     1.86952209e-04     0.00000000e+00    
           1.49050786e-03     1.94285152e-04     0.00000000e+00    
           6.02442946e-04     2.04257041e-04     0.00000000e+00    
           5.82949433e-04     3.34979733e-04     0.00000000e+00    
           5.10471582e-04     3.08815579e-05     0.00000000e+00    
           4.89863043e-04     1.57472547e-04     0.00000000e+00    
           1.09283021e-03     1.92763415e-04     0.00000000e+00    
           1.07318466e-03     3.00883519e-04     0.00000000e+00    
           1.61714153e-03     2.92740093e-04     0.00000000e+00    
           1.59646210e-03     3.86338390e-04     0.00000000e+00    
           9.37331293e-04     2.33128856e-04     0.00000000e+00    
           9.16769612e-04     3.60871636e-04     0.00000000e+00    
           1.23462011e-03     1.81274081e-04     0.00000000e+00    
           1.21276162e-03     2.79621017e-04     0.00000000e+00    
           1.15000003e-03     5.75000013e-04     0.00000000e+00    
           0.00000000e+00     0.00000000e+00     0.00000000e+00    
           1.15000003e-03     0.00000000e+00     0.00000000e+00    
           2.30000005e-03     5.75000013e-04     0.00000000e+00    
           1.65782613e-03     3.81982478e-04     0.00000000e+00    
           1.66912843e-03     3.87821434e-04     0.00000000e+00    
           1.67839183e-03     3.96067917e-04     0.00000000e+00    
           1.68505602e-03     4.06279112e-04     0.00000000e+00    
           1.68827886e-03     4.18103446e-04     0.00000000e+00    
           1.68749737e-03     4.30462504e-04     0.00000000e+00    
           1.68361317e-03     4.42187593e-04     0.00000000e+00    
           1.67624280e-03     4.52320062e-04     0.00000000e+00    
           1.66534097e-03     4.60094248e-04     0.00000000e+00    
           1.65299396e-03     4.64878423e-04     0.00000000e+00    
           1.64009631e-03     4.67095437e-04     0.00000000e+00    
           1.61472708e-03     4.63499862e-04     0.00000000e+00    
           1.60362129e-03     4.57749178e-04     0.00000000e+00    
           1.59453088e-03     4.49573970e-04     0.00000000e+00    
           1.58796646e-03     4.39496827e-04     0.00000000e+00    
           1.58491964e-03     4.27626917e-04     0.00000000e+00    
           1.58604002e-03     4.15216840e-04     0.00000000e+00    
           1.59099256e-03     4.03932325e-04     0.00000000e+00    
           1.59937621e-03     3.93932016e-04     0.00000000e+00    
           1.60950399e-03     3.85192834e-04     0.00000000e+00    
           1.62044703e-03     3.79682344e-04     0.00000000e+00    
           1.63207948e-03     3.77641409e-04     0.00000000e+00    
           6.87138760e-04     4.03747516e-04     0.00000000e+00    
           6.89013454e-04     3.87363252e-04     0.00000000e+00    
           6.94853021e-04     3.71585076e-04     0.00000000e+00    
           7.05066079e-04     3.57892772e-04     0.00000000e+00    
           7.19034404e-04     3.47309309e-04     0.00000000e+00    
           7.34790461e-04     3.40131664e-04     0.00000000e+00    
           7.51422718e-04     3.36632045e-04     0.00000000e+00    
           7.85194512e-04     3.39753897e-04     0.00000000e+00    
           8.00566748e-04     3.46912420e-04     0.00000000e+00    
           8.13443039e-04     3.57616547e-04     0.00000000e+00    
           8.23140901e-04     3.71045433e-04     0.00000000e+00    
           8.28777091e-04     3.86446103e-04     0.00000000e+00    
           8.29861499e-04     4.02841426e-04     0.00000000e+00    
           8.25798896e-04     4.18408366e-04     0.00000000e+00    
           1.95718789e-03     4.46516700e-04     0.00000000e+00    
           1.94312481e-03     4.56313835e-04     0.00000000e+00    
           1.92649267e-03     4.61976044e-04     0.00000000e+00    
           1.90876599e-03     4.64108016e-04     0.00000000e+00    
           1.89124572e-03     4.62373951e-04     0.00000000e+00    
           1.87454151e-03     4.56799055e-04     0.00000000e+00    
           1.85984944e-03     4.47617174e-04     0.00000000e+00    
           1.84817379e-03     4.35136288e-04     0.00000000e+00    
           1.27245672e-03     6.61323720e-04     0.00000000e+00    
           1.25111651e-03     6.59786747e-04     0.00000000e+00    
           1.23046211e-03     6.53674186e-04     0.00000000e+00    
           1.21202937e-03     6.42818399e-04     0.00000000e+00    
           1.19697722e-03     6.27949776e-04     0.00000000e+00    
           1.18630077e-03     6.09964540e-04     0.00000000e+00    
           1.18074554e-03     5.89968811e-04     0.00000000e+00    
           1.18617201e-03     5.48953190e-04     0.00000000e+00    
           1.19629025e-03     5.30074292e-04     0.00000000e+00    
           1.21082587e-03     5.14084124e-04     0.00000000e+00    
           1.22956478e-03     5.02129667e-04     0.00000000e+00    
           1.25082955e-03     4.94714826e-04     0.00000000e+00    
           1.27242529e-03     4.91992920e-04     0.00000000e+00    
           1.29401381e-03     4.94144741e-04     0.00000000e+00    
           1.81517273e-04    -6.18050908e-05     0.00000000e+00    
           1.95888773e-04    -4.66690399e-05     0.00000000e+00    
           2.06213648e-04    -2.87321127e-05     0.00000000e+00    
           2.11788807e-04    -8.98460257e-06     0.00000000e+00    
           2.11669379e-04     1.17735672e-05     0.00000000e+00    
           2.06634417e-04     3.19317078e-05     0.00000000e+00    
           1.96888504e-04     5.04150994e-05     0.00000000e+00    
           1.82223317e-04     6.54940377e-05     0.00000000e+00    
           1.63721008e-04     7.67415549e-05     0.00000000e+00    
           1.50710111e-03     5.43089584e-04     0.00000000e+00    
           1.49456109e-03     5.45359508e-04     0.00000000e+00    
           1.48194144e-03     5.44968119e-04     0.00000000e+00    
           1.46999198e-03     5.41354471e-04     0.00000000e+00    
           1.45976909e-03     5.35148545e-04     0.00000000e+00    
           1.45143422e-03     5.26973512e-04     0.00000000e+00    
           1.44549890e-03     5.17108012e-04     0.00000000e+00    
           1.44219387e-03     5.06311771e-04     0.00000000e+00    
           1.44786783e-03     4.82989417e-04     0.00000000e+00    
           1.45640713e-03     4.73414955e-04     0.00000000e+00    
           1.46701804e-03     4.66324680e-04     0.00000000e+00    
           1.47858623e-03     4.61011427e-04     0.00000000e+00    
           1.49087538e-03     4.57503600e-04     0.00000000e+00    
           1.50371925e-03     4.56892332e-04     0.00000000e+00    
           1.51599501e-03     4.59532515e-04     0.00000000e+00    
           1.52684841e-03     4.65268851e-04     0.00000000e+00    
           3.92087008e-04    -9.07327048e-05     0.00000000e+00    
           3.95206182e-04    -7.87966928e-05     0.00000000e+00    
           3.94492236e-04    -6.64780018e-05     0.00000000e+00    
           3.89351510e-04    -5.46319206e-05     0.00000000e+00    
           3.80605692e-04    -4.45135265e-05     0.00000000e+00    
           1.17105176e-03     4.84408083e-05     0.00000000e+00    
           1.18739402e-03     5.63291287e-05     0.00000000e+00    
           1.20101206e-03     6.80217563e-05     0.00000000e+00    
           1.21039315e-03     8.34370439e-05     0.00000000e+00    
           1.21460820e-03     1.00688820e-04     0.00000000e+00    
           1.21383881e-03     1.18731186e-04     0.00000000e+00    
           1.20830711e-03     1.36126313e-04     0.00000000e+00    
           1.19926571e-03     1.51872402e-04     0.00000000e+00    
           1.18687772e-03     1.64021374e-04     0.00000000e+00    
           1.17091637e-03     1.72071668e-04     0.00000000e+00    
           1.15282345e-03     1.76425878e-04     0.00000000e+00    
           1.11628184e-03     1.72380809e-04     0.00000000e+00    
           1.09999103e-03     1.64227211e-04     0.00000000e+00    
           1.08631665e-03     1.52448207e-04     0.00000000e+00    
           1.07642123e-03     1.37474010e-04     0.00000000e+00    
           1.07120012e-03     1.20311277e-04     0.00000000e+00    
           1.07095204e-03     1.02310849e-04     0.00000000e+00    
           1.07590365e-03     8.48187919e-05     0.00000000e+00    
           1.08627789e-03     6.92273097e-05     0.00000000e+00    
           1.10057055e-03     5.75801969e-05     0.00000000e+00    
           1.11703656e-03     4.98576374e-05     0.00000000e+00    
           1.13467779e-03     4.56006455e-05     0.00000000e+00    
           2.08130479e-03     4.90172708e-04     0.00000000e+00    
           2.09004385e-03     5.07701712e-04     0.00000000e+00    
           2.09372677e-03     5.27236669e-04     0.00000000e+00    
           2.09173746e-03     5.46964002e-04     0.00000000e+00    
           2.08432530e-03     5.65561117e-04     0.00000000e+00    
           2.07187305e-03     5.81396976e-04     0.00000000e+00    
           2.05585267e-03     5.93127625e-04     0.00000000e+00    
           2.03777733e-03     6.01676526e-04     0.00000000e+00    
           2.01814901e-03     6.06958580e-04     0.00000000e+00    
           1.97825208e-03     6.03468274e-04     0.00000000e+00    
           1.96047197e-03     5.94879850e-04     0.00000000e+00    
           1.94551062e-03     5.82456007e-04     0.00000000e+00    
           1.93418376e-03     5.66822302e-04     0.00000000e+00    
           1.92727440e-03     5.48861572e-04     0.00000000e+00    
           1.92607392e-03     5.29676268e-04     0.00000000e+00    
           1.93002832e-03     5.10857033e-04     0.00000000e+00    
           1.93900650e-03     4.93389147e-04     0.00000000e+00    
           1.95148354e-03     4.77938942e-04     0.00000000e+00    
           8.34141509e-04     4.59654198e-04     0.00000000e+00    
           8.51833494e-04     4.56120033e-04     0.00000000e+00    
           8.69695912e-04     4.55779809e-04     0.00000000e+00    
           8.87196569e-04     4.59080708e-04     0.00000000e+00    
           9.03709675e-04     4.65583609e-04     0.00000000e+00    
           1.15590380e-03     3.56378208e-04     0.00000000e+00    
           1.17502664e-03     3.65295156e-04     0.00000000e+00    
           1.19153678e-03     3.77979275e-04     0.00000000e+00    
           1.20447041e-03     3.94114642e-04     0.00000000e+00    
           1.21289073e-03     4.12766414e-04     0.00000000e+00    
           1.21600518e-03     4.33075213e-04     0.00000000e+00    
           1.21307943e-03     4.53377812e-04     0.00000000e+00    
           1.20533479e-03     4.72875632e-04     0.00000000e+00    
           1.19329442e-03     4.90109960e-04     0.00000000e+00    
           1.17696065e-03     5.03839634e-04     0.00000000e+00    
           1.15712627e-03     5.13067818e-04     0.00000000e+00    
           1.13611901e-03     5.17695211e-04     0.00000000e+00    
           1.09368050e-03     5.14292857e-04     0.00000000e+00    
           1.07419130e-03     5.05737669e-04     0.00000000e+00    
           1.05752307e-03     4.92853636e-04     0.00000000e+00    
           1.04473042e-03     4.76229994e-04     0.00000000e+00    
           1.03692187e-03     4.56932932e-04     0.00000000e+00    
           1.03467179e-03     4.36198083e-04     0.00000000e+00    
           1.03697856e-03     4.15465183e-04     0.00000000e+00    
           1.04421680e-03     3.96208547e-04     0.00000000e+00    
           1.05662877e-03     3.79575067e-04     0.00000000e+00    
           1.07323844e-03     3.66477238e-04     0.00000000e+00    
           1.09270145e-03     3.57347861e-04     0.00000000e+00    
           1.11364399e-03     3.52506759e-04     0.00000000e+00    
           1.79911673e-03     4.90111997e-04     0.00000000e+00    
           1.80938654e-03     4.96286200e-04     0.00000000e+00    
           1.81725482e-03     5.04942785e-04     0.00000000e+00    
           1.82222971e-03     5.15338848e-04     0.00000000e+00    
           1.82334508e-03     5.26855234e-04     0.00000000e+00    
           1.82038371e-03     5.38535649e-04     0.00000000e+00    
           1.81325083e-03     5.48834621e-04     0.00000000e+00    
           1.80344086e-03     5.56883519e-04     0.00000000e+00    
           1.79200538e-03     5.62593399e-04     0.00000000e+00    
           1.77979050e-03     5.66116243e-04     0.00000000e+00    
           1.75524352e-03     5.63772221e-04     0.00000000e+00    
           1.74489547e-03     5.57598541e-04     0.00000000e+00    
           1.73716154e-03     5.48772514e-04     0.00000000e+00    
           1.73261529e-03     5.38016146e-04     0.00000000e+00    
           1.73187442e-03     5.26122341e-04     0.00000000e+00    
           1.73443172e-03     5.13888604e-04     0.00000000e+00    
           1.74080103e-03     5.02990733e-04     0.00000000e+00    
           1.75113312e-03     4.94915759e-04     0.00000000e+00    
           1.76245719e-03     4.89960832e-04     0.00000000e+00    
           1.77460816e-03     4.87020385e-04     0.00000000e+00    
           9.18037142e-04     1.26992658e-04     0.00000000e+00    
           9.34235577e-04     1.34587361e-04     0.00000000e+00    
           9.47680091e-04     1.46426319e-04     0.00000000e+00    
           9.56697040e-04     1.61781063e-04     0.00000000e+00    
           9.61410755e-04     1.78725910e-04     0.00000000e+00    
           9.61755635e-04     1.95889254e-04     0.00000000e+00    
           9.57261422e-04     2.12238170e-04     0.00000000e+00    
           9.47135966e-04     2.26930293e-04     0.00000000e+00    
           9.32942668e-04     2.37616609e-04     0.00000000e+00    
           9.17223573e-04     2.45250820e-04     0.00000000e+00    
           8.99713545e-04     2.50500540e-04     0.00000000e+00    
           8.63214082e-04     2.48720811e-04     0.00000000e+00    
           8.46880430e-04     2.40967478e-04     0.00000000e+00    
           8.33445403e-04     2.29314232e-04     0.00000000e+00    
           8.23814538e-04     2.14723623e-04     0.00000000e+00    
           8.18668806e-04     1.98176596e-04     0.00000000e+00    
           8.18584696e-04     1.80651783e-04     0.00000000e+00    
           8.23973794e-04     1.63812598e-04     0.00000000e+00    
           8.34240403e-04     1.49105952e-04     0.00000000e+00    
           8.48324271e-04     1.37841169e-04     0.00000000e+00    
           8.64247035e-04     1.29622407e-04     0.00000000e+00    
           8.81669926e-04     1.24909770e-04     0.00000000e+00    
           2.36608423e-04     1.73315188e-04     0.00000000e+00    
           2.28111050e-04     1.56953654e-04     0.00000000e+00    
           2.24729301e-04     1.38751318e-04     0.00000000e+00    
           2.26499717e-04     1.19771401e-04     0.00000000e+00    
           2.32625811e-04     1.01710066e-04     0.00000000e+00    
           2.43361967e-04     8.59242791e-05     0.00000000e+00    
           2.58432759e-04     7.39704483e-05     0.00000000e+00    
           2.75749015e-04     6.62590464e-05     0.00000000e+00    
           2.94143450e-04     6.12515141e-05     0.00000000e+00    
           3.32074065e-04     6.42085361e-05     0.00000000e+00    
           3.49051203e-04     7.25539139e-05     0.00000000e+00    
           3.63048486e-04     8.50299111e-05     0.00000000e+00    
           3.73273360e-04     1.00707162e-04     0.00000000e+00    
           3.79423785e-04     1.18122342e-04     0.00000000e+00    
           3.81150167e-04     1.36302624e-04     0.00000000e+00    
           3.77834396e-04     1.54200854e-04     0.00000000e+00    
           3.69404297e-04     1.70465690e-04     0.00000000e+00    
           3.56421049e-04     1.84093922e-04     0.00000000e+00    
           1.47259631e-03     2.00850845e-04     0.00000000e+00    
           1.45346054e-03     2.03858406e-04     0.00000000e+00    
           1.43389509e-03     2.02950076e-04     0.00000000e+00    
           1.41538330e-03     1.97209796e-04     0.00000000e+00    
           6.20655250e-04     2.07379591e-04     0.00000000e+00    
           6.37106423e-04     2.15061940e-04     0.00000000e+00    
           6.50724338e-04     2.26790435e-04     0.00000000e+00    
           6.60408521e-04     2.41592803e-04     0.00000000e+00    
           6.65385101e-04     2.58520682e-04     0.00000000e+00    
           6.65264204e-04     2.76375067e-04     0.00000000e+00    
           6.60099206e-04     2.94000056e-04     0.00000000e+00    
           6.49994763e-04     3.09744442e-04     0.00000000e+00    
           6.35381148e-04     3.22069682e-04     0.00000000e+00    
           6.18747144e-04     3.30536277e-04     0.00000000e+00    
           6.01046893e-04     3.34847777e-04     0.00000000e+00    
           5.65562223e-04     3.30629438e-04     0.00000000e+00    
           5.49735618e-04     3.22063774e-04     0.00000000e+00    
           5.36626496e-04     3.09851806e-04     0.00000000e+00    
           5.27196215e-04     2.94659898e-04     0.00000000e+00    
           5.22002461e-04     2.77698564e-04     0.00000000e+00    
           5.21512295e-04     2.60273664e-04     0.00000000e+00    
           5.26102667e-04     2.43352682e-04     0.00000000e+00    
           5.35859028e-04     2.28861536e-04     0.00000000e+00    
           5.49710297e-04     2.17504567e-04     0.00000000e+00    