<?xml version="1.0"?>
<VTKFile type="UnstructuredGrid" version="0.1">
  <UnstructuredGrid>
    <Piece NumberOfPoints="1034" NumberOfCells="1614">
      <Points>
        <DataArray type="Float32" NumberOfComponents="3">
           5.21582007e-01     5.11657000e-01     0.00000000e+00    
           5.07319987e-01     5.11657000e-01     0.00000000e+00    
           4.65243995e-01     5.17907977e-01     0.00000000e+00    
           4.65243995e-01     5.04921973e-01     0.00000000e+00    
           4.75246996e-01     5.11415005e-01     0.00000000e+00    
           5.33852994e-01     5.04921973e-01     0.00000000e+00    
           5.33852994e-01     5.17907977e-01     0.00000000e+00    
           4.83779997e-01     5.34618974e-01     0.00000000e+00    
           4.68984991e-01     5.34618974e-01     0.00000000e+00    
           4.76381987e-01     5.23841977e-01     0.00000000e+00    
           4.68984991e-01     4.66010004e-01     0.00000000e+00    
           4.83779997e-01     4.66010004e-01     0.00000000e+00    
           4.99920011e-01     5.34618974e-01     0.00000000e+00    
           4.89203990e-01     5.34618974e-01     0.00000000e+00    
           4.94562000e-01     5.22280991e-01     0.00000000e+00    
           4.89203990e-01     4.66010004e-01     0.00000000e+00    
           4.99920011e-01     4.66010004e-01     0.00000000e+00    
           5.32517016e-01     4.74112004e-01     0.00000000e+00    
           5.17961025e-01     4.74112004e-01     0.00000000e+00    
           5.33852994e-01     5.19801974e-01     0.00000000e+00    
           5.33852994e-01     5.29603004e-01     0.00000000e+00    
           5.19536972e-01     5.24702013e-01     0.00000000e+00    
           4.65243995e-01     5.29603004e-01     0.00000000e+00    
           4.65243995e-01     5.19801974e-01     0.00000000e+00    
           4.92487997e-01     5.17117977e-01     0.00000000e+00    
           4.76904988e-01     5.17117977e-01     0.00000000e+00    
           5.17996013e-01     5.27033985e-01     0.00000000e+00    
           5.04473984e-01     5.27033985e-01     0.00000000e+00    
           5.08446991e-01     4.83435005e-01     0.00000000e+00    
           4.94414002e-01     4.83435005e-01     0.00000000e+00    
           4.65243995e-01     4.83101994e-01     0.00000000e+00    
           4.65243995e-01     4.74415004e-01     0.00000000e+00    
           4.78336990e-01     4.78758007e-01     0.00000000e+00    
           5.33852994e-01     4.74415004e-01     0.00000000e+00    
           5.33852994e-01     4.83101994e-01     0.00000000e+00    
           4.80668008e-01     4.95810986e-01     0.00000000e+00    
           4.66084987e-01     4.95810986e-01     0.00000000e+00    
           4.93930012e-01     4.79214013e-01     0.00000000e+00    
           4.78967011e-01     4.79214013e-01     0.00000000e+00    
           5.09284973e-01     4.97658014e-01     0.00000000e+00    
           4.95503992e-01     4.97658014e-01     0.00000000e+00    
           5.33011973e-01     5.01751006e-01     0.00000000e+00    
           5.17829001e-01     5.01751006e-01     0.00000000e+00    
           4.95451003e-01     5.00564992e-01     0.00000000e+00    
           4.80922014e-01     5.00564992e-01     0.00000000e+00    
           5.25367022e-01     4.88312006e-01     0.00000000e+00    
           5.09521008e-01     4.88312006e-01     0.00000000e+00    
           4.65243995e-01     5.34618974e-01     0.00000000e+00    
           4.65243995e-01     4.66010004e-01     0.00000000e+00    
           5.33852994e-01     4.66010004e-01     0.00000000e+00    
           5.33852994e-01     5.34618974e-01     0.00000000e+00    
           5.21338999e-01     5.13502657e-01     0.00000000e+00    
           5.20626605e-01     5.15222490e-01     0.00000000e+00    
           5.19493401e-01     5.16699374e-01     0.00000000e+00    
           5.18016517e-01     5.17832637e-01     0.00000000e+00    
           5.16296625e-01     5.18545032e-01     0.00000000e+00    
           5.14451027e-01     5.18787980e-01     0.00000000e+00    
           5.12605369e-01     5.18545032e-01     0.00000000e+00    
           5.10885477e-01     5.17832637e-01     0.00000000e+00    
           5.09408593e-01     5.16699374e-01     0.00000000e+00    
           5.08275390e-01     5.15222490e-01     0.00000000e+00    
           5.07562995e-01     5.13502657e-01     0.00000000e+00    
           5.07562995e-01     5.09811342e-01     0.00000000e+00    
           5.08275390e-01     5.08091509e-01     0.00000000e+00    
           5.09408593e-01     5.06614625e-01     0.00000000e+00    
           5.10885477e-01     5.05481362e-01     0.00000000e+00    
           5.12605369e-01     5.04768968e-01     0.00000000e+00    
           5.14451027e-01     5.04526019e-01     0.00000000e+00    
           5.16296625e-01     5.04768968e-01     0.00000000e+00    
           5.18016517e-01     5.05481362e-01     0.00000000e+00    
           5.19493401e-01     5.06614625e-01     0.00000000e+00    
           5.20626605e-01     5.08091509e-01     0.00000000e+00    
           5.21338999e-01     5.09811342e-01     0.00000000e+00    
           4.66931671e-01     5.04409373e-01     0.00000000e+00    
           4.68693614e-01     5.04328012e-01     0.00000000e+00    
           4.70421344e-01     5.04682958e-01     0.00000000e+00    
           4.72008497e-01     5.05452335e-01     0.00000000e+00    
           4.73357379e-01     5.06588817e-01     0.00000000e+00    
           4.74384934e-01     5.08022368e-01     0.00000000e+00    
           4.75027919e-01     5.09664834e-01     0.00000000e+00    
           4.75028187e-01     5.13165236e-01     0.00000000e+00    
           4.74385172e-01     5.14807761e-01     0.00000000e+00    
           4.73357558e-01     5.16241372e-01     0.00000000e+00    
           4.72008646e-01     5.17377913e-01     0.00000000e+00    
           4.70421433e-01     5.18147290e-01     0.00000000e+00    
           4.68693614e-01     5.18502235e-01     0.00000000e+00    
           4.66931641e-01     5.18420875e-01     0.00000000e+00    
           5.32303810e-01     5.16964078e-01     0.00000000e+00    
           5.31043947e-01     5.15658796e-01     0.00000000e+00    
           5.30155540e-01     5.14077127e-01     0.00000000e+00    
           5.29696345e-01     5.12322068e-01     0.00000000e+00    
           5.29696345e-01     5.10507941e-01     0.00000000e+00    
           5.30155540e-01     5.08752882e-01     0.00000000e+00    
           5.31043947e-01     5.07171214e-01     0.00000000e+00    
           5.32303810e-01     5.05865932e-01     0.00000000e+00    
           4.68517244e-01     5.32760799e-01     0.00000000e+00    
           4.68509018e-01     5.30844629e-01     0.00000000e+00    
           4.68960851e-01     5.28982460e-01     0.00000000e+00    
           4.69846308e-01     5.27283132e-01     0.00000000e+00    
           4.71113682e-01     5.25845945e-01     0.00000000e+00    
           4.72688884e-01     5.24754822e-01     0.00000000e+00    
           4.74479854e-01     5.24073541e-01     0.00000000e+00    
           4.78284091e-01     5.24073601e-01     0.00000000e+00    
           4.80075032e-01     5.24754822e-01     0.00000000e+00    
           4.81650203e-01     5.25845885e-01     0.00000000e+00    
           4.82917547e-01     5.27283013e-01     0.00000000e+00    
           4.83803004e-01     5.28982282e-01     0.00000000e+00    
           4.84254897e-01     5.30844331e-01     0.00000000e+00    
           4.84246761e-01     5.32760441e-01     0.00000000e+00    
           4.82887864e-01     4.67691004e-01     0.00000000e+00    
           4.81620818e-01     4.69110936e-01     0.00000000e+00    
           4.80051905e-01     4.70188022e-01     0.00000000e+00    
           4.78271484e-01     4.70860153e-01     0.00000000e+00    
           4.76382166e-01     4.71088618e-01     0.00000000e+00    
           4.74492878e-01     4.70860243e-01     0.00000000e+00    
           4.72712427e-01     4.70188200e-01     0.00000000e+00    
           4.71143454e-01     4.69111174e-01     0.00000000e+00    
           4.69876349e-01     4.67691302e-01     0.00000000e+00    
           4.88103986e-01     5.33086061e-01     0.00000000e+00    
           4.87431526e-01     5.31323195e-01     0.00000000e+00    
           4.87231195e-01     5.29447019e-01     0.00000000e+00    
           4.87516224e-01     5.27581930e-01     0.00000000e+00    
           4.88267750e-01     5.25851250e-01     0.00000000e+00    
           4.89436030e-01     5.24369657e-01     0.00000000e+00    
           4.90943670e-01     5.23235261e-01     0.00000000e+00    
           4.92690891e-01     5.22523046e-01     0.00000000e+00    
           4.96432930e-01     5.22523701e-01     0.00000000e+00    
           4.98180002e-01     5.23235798e-01     0.00000000e+00    
           4.99687493e-01     5.24370134e-01     0.00000000e+00    
           5.00855684e-01     5.25851607e-01     0.00000000e+00    
           5.01607120e-01     5.27582109e-01     0.00000000e+00    
           5.01892149e-01     5.29447079e-01     0.00000000e+00    
           5.01691818e-01     5.31323016e-01     0.00000000e+00    
           5.01019418e-01     5.33085763e-01     0.00000000e+00    
           4.98371124e-01     4.67269689e-01     0.00000000e+00    
           4.96539861e-01     4.68064904e-01     0.00000000e+00    
           4.94562000e-01     4.68336672e-01     0.00000000e+00    
           4.92584139e-01     4.68064904e-01     0.00000000e+00    
           4.90752876e-01     4.67269689e-01     0.00000000e+00    
           5.32269001e-01     4.75995690e-01     0.00000000e+00    
           5.31541944e-01     4.77750987e-01     0.00000000e+00    
           5.30385315e-01     4.79258329e-01     0.00000000e+00    
           5.28877974e-01     4.80414927e-01     0.00000000e+00    
[...]
      <PointData>
        <DataArray type="Float32" Name="Displacement" NumberOfComponents="3">
           9.06520290e-04     1.58030912e-03     0.00000000e+00    
           8.96684709e-04     1.80121243e-03     0.00000000e+00    
           9.73069516e-04     1.69182720e-03     0.00000000e+00    
           8.46148643e-04     1.67118222e-03     0.00000000e+00    
           9.16834921e-04     1.59181538e-03     0.00000000e+00    
           8.46148643e-04     1.67118222e-03     0.00000000e+00    
           9.73069516e-04     1.69182720e-03     0.00000000e+00    
           1.23016350e-03     2.31484161e-03     0.00000000e+00    
           1.22397777e-03     2.37302063e-03     0.00000000e+00    
           1.18099351e-03     2.32461002e-03     0.00000000e+00    
           2.39777819e-05    -2.69794782e-05     0.00000000e+00    
           3.01634682e-05    -8.51585064e-05     0.00000000e+00    
           1.23804947e-03     2.26775045e-03     0.00000000e+00    
           1.23247667e-03     2.35110242e-03     0.00000000e+00    
           1.13109429e-03     2.28843489e-03     0.00000000e+00    
           3.24766406e-05    -4.88975456e-05     0.00000000e+00    
           3.80494530e-05    -1.32249508e-04     0.00000000e+00    
           3.31179297e-04     4.39872732e-04     0.00000000e+00    
           3.18941107e-04     5.08658704e-04     0.00000000e+00    
           1.13707955e-03     1.99584523e-03     0.00000000e+00    
           1.22013071e-03     2.01451802e-03     0.00000000e+00    
           1.17511791e-03     2.12055724e-03     0.00000000e+00    
           1.22013071e-03     2.01451802e-03     0.00000000e+00    
           1.13707955e-03     1.99584523e-03     0.00000000e+00    
           9.98617033e-04     1.79660833e-03     0.00000000e+00    
           9.87859676e-04     1.88843277e-03     0.00000000e+00    
           1.19162374e-03     2.12698150e-03     0.00000000e+00    
           1.18953956e-03     2.23434204e-03     0.00000000e+00    
           4.54522378e-04     7.73132895e-04     0.00000000e+00    
           4.42743272e-04     7.60292227e-04     0.00000000e+00    
           3.70212860e-04     5.53553225e-04     0.00000000e+00    
           3.74677358e-04     5.38869237e-04     0.00000000e+00    
           3.81279329e-04     5.65223861e-04     0.00000000e+00    
           3.74677358e-04     5.38869237e-04     0.00000000e+00    
           3.70212860e-04     5.53553225e-04     0.00000000e+00    
           6.59962301e-04     1.16760400e-03     0.00000000e+00    
           6.51187263e-04     1.24994677e-03     0.00000000e+00    
           4.11392655e-04     6.32925774e-04     0.00000000e+00    
           3.99594021e-04     6.00663247e-04     0.00000000e+00    
           6.90505607e-04     1.05923973e-03     0.00000000e+00    
           6.84444269e-04     1.19354797e-03     0.00000000e+00    
           7.35607464e-04     1.32797332e-03     0.00000000e+00    
           7.26944010e-04     1.57233828e-03     0.00000000e+00    
           7.00221572e-04     1.19969319e-03     0.00000000e+00    
           6.93115580e-04     1.27446582e-03     0.00000000e+00    
           5.48102602e-04     7.74758635e-04     0.00000000e+00    
           5.35798783e-04     8.96721496e-04     0.00000000e+00    
           1.20000006e-03     2.40000011e-03     0.00000000e+00    
           0.00000000e+00     0.00000000e+00     0.00000000e+00    
           0.00000000e+00     0.00000000e+00     0.00000000e+00    
           1.20000006e-03     2.40000011e-03     0.00000000e+00    
           9.34859621e-04     1.58841687e-03     0.00000000e+00    
           9.62256512e-04     1.60172174e-03     0.00000000e+00    
           9.85588413e-04     1.62160862e-03     0.00000000e+00    
           1.00279239e-03     1.64635899e-03     0.00000000e+00    
           1.01307803e-03     1.67420146e-03     0.00000000e+00    
           1.01568166e-03     1.70340564e-03     0.00000000e+00    
           1.01081561e-03     1.73193822e-03     0.00000000e+00    
           9.98726813e-04     1.75781886e-03     0.00000000e+00    
           9.79883829e-04     1.77928980e-03     0.00000000e+00    
           9.54509713e-04     1.79418689e-03     0.00000000e+00    
           9.26011358e-04     1.80142478e-03     0.00000000e+00    
           8.68065050e-04     1.79423939e-03     0.00000000e+00    
           8.41129513e-04     1.78113370e-03     0.00000000e+00    
           8.17852386e-04     1.76188361e-03     0.00000000e+00    
           8.00027337e-04     1.73781032e-03     0.00000000e+00    
           7.89062469e-04     1.71028171e-03     0.00000000e+00    
           7.85563490e-04     1.68134749e-03     0.00000000e+00    
           7.90096528e-04     1.65264192e-03     0.00000000e+00    
           8.02720024e-04     1.62576651e-03     0.00000000e+00    
           8.22847593e-04     1.60343910e-03     0.00000000e+00    
           8.47009884e-04     1.58753118e-03     0.00000000e+00    
           8.75826925e-04     1.57980016e-03     0.00000000e+00    
           8.42524518e-04     1.65495393e-03     0.00000000e+00    
           8.42971203e-04     1.63861807e-03     0.00000000e+00    
           8.47318443e-04     1.62314810e-03     0.00000000e+00    
           8.55588121e-04     1.60960772e-03     0.00000000e+00    
           8.67631868e-04     1.59903383e-03     0.00000000e+00    
           8.83108820e-04     1.59202423e-03     0.00000000e+00    
           9.00145795e-04     1.59014622e-03     0.00000000e+00    
           9.32311581e-04     1.59696257e-03     0.00000000e+00    
           9.47100983e-04     1.60477660e-03     0.00000000e+00    
           9.59996891e-04     1.61576702e-03     0.00000000e+00    
           9.70063498e-04     1.62910402e-03     0.00000000e+00    
           9.76708950e-04     1.64438295e-03     0.00000000e+00    
           9.79561359e-04     1.66059693e-03     0.00000000e+00    
           9.78319440e-04     1.67685584e-03     0.00000000e+00    
           9.63293423e-04     1.70520658e-03     0.00000000e+00    
           9.49294481e-04     1.71524833e-03     0.00000000e+00    
           9.32353432e-04     1.72045664e-03     0.00000000e+00    
           9.14496137e-04     1.72089750e-03     0.00000000e+00    
           8.97917140e-04     1.71671796e-03     0.00000000e+00    
           8.81226500e-04     1.71000778e-03     0.00000000e+00    
           8.66141985e-04     1.70018629e-03     0.00000000e+00    
           8.54156853e-04     1.68688525e-03     0.00000000e+00    
           1.21418969e-03     2.37043598e-03     0.00000000e+00    
           1.20642735e-03     2.36594141e-03     0.00000000e+00    
           1.19969354e-03     2.36086221e-03     0.00000000e+00    
           1.19304110e-03     2.35491921e-03     0.00000000e+00    
           1.18732580e-03     2.34812731e-03     0.00000000e+00    
           1.18332950e-03     2.34062923e-03     0.00000000e+00    
           1.18110550e-03     2.33256631e-03     0.00000000e+00    
           1.18285150e-03     2.31717131e-03     0.00000000e+00    
           1.18669425e-03     2.31106859e-03     0.00000000e+00    
           1.19181629e-03     2.30642501e-03     0.00000000e+00    
           1.19796908e-03     2.30335398e-03     0.00000000e+00    
           1.20508042e-03     2.30357936e-03     0.00000000e+00    
           1.21273217e-03     2.30682571e-03     0.00000000e+00    
           1.22128834e-03     2.31032260e-03     0.00000000e+00    
           3.83806182e-05    -7.97450484e-05     0.00000000e+00    
           4.47011007e-05    -7.29890016e-05     0.00000000e+00    
           4.92394283e-05    -6.54010510e-05     0.00000000e+00    
           5.15788342e-05    -5.72651079e-05     0.00000000e+00    
           5.16978471e-05    -4.94294327e-05     0.00000000e+00    
           4.98366535e-05    -4.21990007e-05     0.00000000e+00    
           4.61831114e-05    -3.58939506e-05     0.00000000e+00    
           4.09421555e-05    -3.09080460e-05     0.00000000e+00    
           3.31850279e-05    -2.78649804e-05     0.00000000e+00    
           1.21963327e-03     2.35626986e-03     0.00000000e+00    
           1.20599847e-03     2.35688942e-03     0.00000000e+00    
           1.19147357e-03     2.35452852e-03     0.00000000e+00    
           1.17567414e-03     2.34937528e-03     0.00000000e+00    
           1.15973444e-03     2.34215800e-03     0.00000000e+00    
           1.14684284e-03     2.33139703e-03     0.00000000e+00    
           1.13757642e-03     2.31815199e-03     0.00000000e+00    
           1.13227288e-03     2.30348646e-03     0.00000000e+00    
           1.13385869e-03     2.27398332e-03     0.00000000e+00    
           1.14075828e-03     2.26115040e-03     0.00000000e+00    
           1.15118758e-03     2.25123507e-03     0.00000000e+00    
           1.16406172e-03     2.24485109e-03     0.00000000e+00    
           1.17849384e-03     2.24283803e-03     0.00000000e+00    
           1.19425671e-03     2.24417611e-03     0.00000000e+00    
           1.21047010e-03     2.24940246e-03     0.00000000e+00    
           1.22544926e-03     2.25702371e-03     0.00000000e+00    
           4.78998700e-05    -1.18390140e-04     0.00000000e+00    
           5.34137289e-05    -1.02908270e-04     0.00000000e+00    
           5.45723306e-05    -8.71173761e-05     0.00000000e+00    
           5.12283550e-05    -7.20501776e-05     0.00000000e+00    
           4.36242553e-05    -5.88556795e-05     0.00000000e+00    
           3.40595812e-04     4.43856203e-04     0.00000000e+00    
           3.48754140e-04     4.49580926e-04     0.00000000e+00    
           3.55043623e-04     4.57061658e-04     0.00000000e+00    
           3.59942758e-04     4.65470977e-04     0.00000000e+00    
           3.63161496e-04     4.75043111e-04     0.00000000e+00    
           3.63694795e-04     4.84758784e-04     0.00000000e+00    
           3.61869519e-04     4.94131469e-04     0.00000000e+00    
           3.57011886e-04     5.02228562e-04     0.00000000e+00    
           3.49850510e-04     5.08590136e-04     0.00000000e+00    
           3.40405531e-04     5.12330327e-04     0.00000000e+00    
           3.29109986e-04     5.12461062e-04     0.00000000e+00    
           3.09188792e-04     5.04295633e-04     0.00000000e+00    
           3.00745043e-04     4.98061941e-04     0.00000000e+00    
           2.93469697e-04     4.90609673e-04     0.00000000e+00    
           2.88142706e-04     4.81884170e-04     0.00000000e+00    
           2.85211921e-04     4.72436950e-04     0.00000000e+00    
           2.84877082e-04     4.62901720e-04     0.00000000e+00    
           2.86926777e-04     4.53842833e-04     0.00000000e+00    
           2.91423901e-04     4.46172635e-04     0.00000000e+00    
           2.98800995e-04     4.40012722e-04     0.00000000e+00    
           3.09306051e-04     4.36673115e-04     0.00000000e+00    
           3.20951076e-04     4.36766015e-04     0.00000000e+00    
           1.23138609e-03     2.02740938e-03     0.00000000e+00    
           1.23923214e-03     2.04239204e-03     0.00000000e+00    
           1.24334008e-03     2.05834652e-03     0.00000000e+00    
           1.24371715e-03     2.07446120e-03     0.00000000e+00    
           1.24006951e-03     2.08968390e-03     0.00000000e+00    
           1.23222522e-03     2.10324954e-03     0.00000000e+00    
           1.22054503e-03     2.11370829e-03     0.00000000e+00    
           1.20709662e-03     2.11991603e-03     0.00000000e+00    
           1.19214610e-03     2.12202314e-03     0.00000000e+00    
           1.15704455e-03     2.11531785e-03     0.00000000e+00    
           1.13990554e-03     2.10702466e-03     0.00000000e+00    
           1.12591404e-03     2.09534238e-03     0.00000000e+00    
           1.11513003e-03     2.08117114e-03     0.00000000e+00    
           1.10855629e-03     2.06534564e-03     0.00000000e+00    
           1.10615301e-03     2.04877416e-03     0.00000000e+00    
           1.10798038e-03     2.03258847e-03     0.00000000e+00    
           1.11376052e-03     2.01776135e-03     0.00000000e+00    
           1.12361833e-03     2.00522225e-03     0.00000000e+00    
           1.15149864e-03     1.99102680e-03     0.00000000e+00    
           1.16684986e-03     1.99042424e-03     0.00000000e+00    
           1.18158595e-03     1.99299748e-03     0.00000000e+00    
           1.19507941e-03     1.99832674e-03     0.00000000e+00    
           1.20816845e-03     2.00522784e-03     0.00000000e+00    
           1.00992271e-03     1.80160464e-03     0.00000000e+00    
           1.02075632e-03     1.80814660e-03     0.00000000e+00    
           1.03071192e-03     1.81637786e-03     0.00000000e+00    
           1.03814725e-03     1.82655547e-03     0.00000000e+00    
           1.04273809e-03     1.83797604e-03     0.00000000e+00    
           1.04426290e-03     1.84984144e-03     0.00000000e+00    
           1.04279816e-03     1.86122640e-03     0.00000000e+00    
           1.03875366e-03     1.87173299e-03     0.00000000e+00    
           1.03213475e-03     1.88057288e-03     0.00000000e+00    
           1.02349371e-03     1.88751775e-03     0.00000000e+00    
           1.01220445e-03     1.89132255e-03     0.00000000e+00    
           9.99945914e-04     1.89085142e-03     0.00000000e+00    
           9.76699521e-04     1.88352098e-03     0.00000000e+00    
           9.66114923e-04     1.87709555e-03     0.00000000e+00    
           9.56825446e-04     1.86876988e-03     0.00000000e+00    
           9.49609326e-04     1.85889821e-03     0.00000000e+00    
           9.44799394e-04     1.84789591e-03     0.00000000e+00    
           9.42709798e-04     1.83626509e-03     0.00000000e+00    
           9.43601248e-04     1.82490412e-03     0.00000000e+00    
           9.47051041e-04     1.81432033e-03     0.00000000e+00    
           9.53275361e-04     1.80527964e-03     0.00000000e+00    
           9.62035207e-04     1.79811695e-03     0.00000000e+00    
           9.73702699e-04     1.79406733e-03     0.00000000e+00    
           9.86391446e-04     1.79386127e-03     0.00000000e+00    
           1.20856438e-03     2.13240250e-03     0.00000000e+00    
           1.22436520e-03     2.14136741e-03     0.00000000e+00    
           1.23695761e-03     2.15367996e-03     0.00000000e+00    
           1.24541891e-03     2.16826494e-03     0.00000000e+00    
           1.24927261e-03     2.18405132e-03     0.00000000e+00    
           1.24837761e-03     2.19974364e-03     0.00000000e+00    
           1.24312693e-03     2.21408089e-03     0.00000000e+00    
           1.23365817e-03     2.22586701e-03     0.00000000e+00    
           1.22055993e-03     2.23358837e-03     0.00000000e+00    
           1.20573246e-03     2.23589665e-03     0.00000000e+00    
           1.17300125e-03     2.22831708e-03     0.00000000e+00    
           1.15810218e-03     2.21912772e-03     0.00000000e+00    
           1.14603434e-03     2.20685801e-03     0.00000000e+00    
           1.13798014e-03     2.19222088e-03     0.00000000e+00    
           1.13424286e-03     2.17651902e-03     0.00000000e+00    
           1.13520108e-03     2.16111564e-03     0.00000000e+00    
           1.14013581e-03     2.14708992e-03     0.00000000e+00    
           1.14917336e-03     2.13563442e-03     0.00000000e+00    
           1.16134854e-03     2.12853728e-03     0.00000000e+00    
           1.17539114e-03     2.12573004e-03     0.00000000e+00    
           4.54301771e-04     7.75937631e-04     0.00000000e+00    
           4.53423359e-04     7.77886482e-04     0.00000000e+00    
           4.52012318e-04     7.79008144e-04     0.00000000e+00    
           4.50547290e-04     7.79249473e-04     0.00000000e+00    
           4.49180399e-04     7.78732763e-04     0.00000000e+00    
           4.48169361e-04     7.77713140e-04     0.00000000e+00    
           4.47336817e-04     7.76204746e-04     0.00000000e+00    
           4.46758437e-04     7.74385175e-04     0.00000000e+00    
           4.45039332e-04     7.72130268e-04     0.00000000e+00    
           4.43270779e-04     7.68819184e-04     0.00000000e+00    
           4.42111486e-04     7.64493539e-04     0.00000000e+00    
           4.43860743e-04     7.57826900e-04     0.00000000e+00    
           4.45175421e-04     7.55951449e-04     0.00000000e+00    
           4.47086932e-04     7.55056273e-04     0.00000000e+00    
           4.48572071e-04     7.55011977e-04     0.00000000e+00    
           4.49790881e-04     7.55630084e-04     0.00000000e+00    
           4.50469030e-04     7.56718044e-04     0.00000000e+00    
           4.51054773e-04     7.58132373e-04     0.00000000e+00    
           4.51448199e-04     7.59846997e-04     0.00000000e+00    
           4.52227774e-04     7.62100564e-04     0.00000000e+00    
           4.53623361e-04     7.64819502e-04     0.00000000e+00    
           4.54796012e-04     7.68758997e-04     0.00000000e+00    
           3.76991433e-04     5.38815744e-04     0.00000000e+00    
           3.79182689e-04     5.39635075e-04     0.00000000e+00    
           3.80948390e-04     5.41315880e-04     0.00000000e+00    
           3.82051221e-04     5.43507049e-04     0.00000000e+00    
           3.82762693e-04     5.46244031e-04     0.00000000e+00    
           3.83250182e-04     5.49239339e-04     0.00000000e+00    
           3.83825653e-04     5.52643789e-04     0.00000000e+00    
           3.84007173e-04     5.57256106e-04     0.00000000e+00    
           3.83019535e-04     5.61934779e-04     0.00000000e+00    
           3.79110657e-04     5.67270559e-04     0.00000000e+00    
           3.76637268e-04     5.68715506e-04     0.00000000e+00    
           3.74714698e-04     5.69446827e-04     0.00000000e+00    
           3.72970564e-04     5.68948220e-04     0.00000000e+00    
           3.71754810e-04     5.67681505e-04     0.00000000e+00    
           3.70682828e-04     5.65730385e-04     0.00000000e+00    
           3.70066089e-04     5.63205860e-04     0.00000000e+00    
           3.69980931e-04     5.60338784e-04     0.00000000e+00    
           3.70397291e-04     5.56982064e-04     0.00000000e+00    
           3.69973975e-04     5.49335615e-04     0.00000000e+00    
           3.70495662e-04     5.44391805e-04     0.00000000e+00    
           3.71842674e-04     5.41339337e-04     0.00000000e+00    
           3.72964801e-04     5.40001201e-04     0.00000000e+00    
           6.70125242e-04     1.17258204e-03     0.00000000e+00    
           6.79881079e-04     1.17896323e-03     0.00000000e+00    
           6.88063737e-04     1.18702394e-03     0.00000000e+00    
           6.94897899e-04     1.19682145e-03     0.00000000e+00    
           6.99035998e-04     1.20780594e-03     0.00000000e+00    
           7.00175471e-04     1.21899811e-03     0.00000000e+00    
           6.98345480e-04     1.22960040e-03     0.00000000e+00    
           6.94034796e-04     1.23893504e-03     0.00000000e+00    
           6.87469903e-04     1.24627457e-03     0.00000000e+00    
           6.77770353e-04     1.25082408e-03     0.00000000e+00    
           6.65002852e-04     1.25199929e-03     0.00000000e+00    
           6.38564990e-04     1.24494149e-03     0.00000000e+00    
           6.28005480e-04     1.23747927e-03     0.00000000e+00    
           6.19813625e-04     1.22836512e-03     0.00000000e+00    
           6.13720855e-04     1.21808844e-03     0.00000000e+00    
           6.10312098e-04     1.20701874e-03     0.00000000e+00    
           6.09696086e-04     1.19560037e-03     0.00000000e+00    
           6.12096861e-04     1.18484453e-03     0.00000000e+00    
           6.17578393e-04     1.17541500e-03     0.00000000e+00    
           6.25949935e-04     1.16835616e-03     0.00000000e+00    