<?xml version="1.0"?>
<VTKFile type="UnstructuredGrid" version="0.1">
  <UnstructuredGrid>
    <Piece NumberOfPoints="1034" NumberOfCells="1614">
      <Points>
        <DataArray type="Float32" NumberOfComponents="3">
           5.21582007e-01     5.11657000e-01     0.00000000e+00    
           5.07319987e-01     5.11657000e-01     0.00000000e+00    
           4.65243995e-01     5.17907977e-01     0.00000000e+00    
           4.65243995e-01     5.04921973e-01     0.00000000e+00    
           4.75246996e-01     5.11415005e-01     0.00000000e+00    
           5.33852994e-01     5.04921973e-01     0.00000000e+00    
           5.33852994e-01     5.17907977e-01     0.00000000e+00    
           4.83779997e-01     5.34618974e-01     0.00000000e+00    
           4.68984991e-01     5.34618974e-01     0.00000000e+00    
           4.76381987e-01     5.23841977e-01     0.00000000e+00    
           4.68984991e-01     4.66010004e-01     0.00000000e+00    
           4.83779997e-01     4.66010004e-01     0.00000000e+00    
           4.99920011e-01     5.34618974e-01     0.00000000e+00    
           4.89203990e-01     5.34618974e-01     0.00000000e+00    
           4.94562000e-01     5.22280991e-01     0.00000000e+00    
           4.89203990e-01     4.66010004e-01     0.00000000e+00    
           4.99920011e-01     4.66010004e-01     0.00000000e+00    
           5.32517016e-01     4.74112004e-01     0.00000000e+00    
           5.17961025e-01     4.74112004e-01     0.00000000e+00    
           5.33852994e-01     5.19801974e-01     0.00000000e+00    
           5.33852994e-01     5.29603004e-01     0.00000000e+00    
           5.19536972e-01     5.24702013e-01     0.00000000e+00    
           4.65243995e-01     5.29603004e-01     0.00000000e+00    
           4.65243995e-01     5.19801974e-01     0.00000000e+00    
           4.92487997e-01     5.17117977e-01     0.00000000e+00    
           4.76904988e-01     5.17117977e-01     0.00000000e+00    
           5.17996013e-01     5.27033985e-01     0.00000000e+00    
           5.04473984e-01     5.27033985e-01     0.00000000e+00    
           5.08446991e-01     4.83435005e-01     0.00000000e+00    
           4.94414002e-01     4.83435005e-01     0.00000000e+00    
           4.65243995e-01     4.83101994e-01     0.00000000e+00    
           4.65243995e-01     4.74415004e-01     0.00000000e+00    
           4.78336990e-01     4.78758007e-01     0.00000000e+00    
           5.33852994e-01     4.74415004e-01     0.00000000e+00    
           5.33852994e-01     4.83101994e-01     0.00000000e+00    
           4.80668008e-01     4.95810986e-01     0.00000000e+00    
           4.66084987e-01     4.95810986e-01     0.00000000e+00    
           4.93930012e-01     4.79214013e-01     0.00000000e+00    
           4.78967011e-01     4.79214013e-01     0.00000000e+00    
           5.09284973e-01     4.97658014e-01     0.00000000e+00    
           4.95503992e-01     4.97658014e-01     0.00000000e+00    
           5.33011973e-01     5.01751006e-01     0.00000000e+00    
           5.17829001e-01     5.01751006e-01     0.00000000e+00    
           4.95451003e-01     5.00564992e-01     0.00000000e+00    
           4.80922014e-01     5.00564992e-01     0.00000000e+00    
           5.25367022e-01     4.88312006e-01     0.00000000e+00    
           5.09521008e-01     4.88312006e-01     0.00000000e+00    
           4.65243995e-01     5.34618974e-01     0.00000000e+00    
           4.65243995e-01     4.66010004e-01     0.00000000e+00    
           5.33852994e-01     4.66010004e-01     0.00000000e+00    
           5.33852994e-01     5.34618974e-01     0.00000000e+00    
           5.21338999e-01     5.13502657e-01     0.00000000e+00    
           5.20626605e-01     5.15222490e-01     0.00000000e+00    
           5.19493401e-01     5.16699374e-01     0.00000000e+00    
           5.18016517e-01     5.17832637e-01     0.00000000e+00    
           5.16296625e-01     5.18545032e-01     0.00000000e+00    
           5.14451027e-01     5.18787980e-01     0.00000000e+00    
           5.12605369e-01     5.18545032e-01     0.00000000e+00    
           5.10885477e-01     5.17832637e-01     0.00000000e+00    
           5.09408593e-01     5.16699374e-01     0.00000000e+00    
           5.08275390e-01     5.15222490e-01     0.00000000e+00    
           5.07562995e-01     5.13502657e-01     0.00000000e+00    
           5.07562995e-01     5.09811342e-01     0.00000000e+00    
           5.08275390e-01     5.08091509e-01     0.00000000e+00    
           5.09408593e-01     5.06614625e-01     0.00000000e+00    
           5.10885477e-01     5.05481362e-01     0.00000000e+00    
           5.12605369e-01     5.04768968e-01     0.00000000e+00    
           5.14451027e-01     5.04526019e-01     0.00000000e+00    
           5.16296625e-01     5.04768968e-01     0.00000000e+00    
           5.18016517e-01     5.05481362e-01     0.00000000e+00    
           5.19493401e-01     5.06614625e-01     0.00000000e+00    
           5.20626605e-01     5.08091509e-01     0.00000000e+00    
           5.21338999e-01     5.09811342e-01     0.00000000e+00    
           4.66931671e-01     5.04409373e-01     0.00000000e+00    
           4.68693614e-01     5.04328012e-01     0.00000000e+00    
           4.70421344e-01     5.04682958e-01     0.00000000e+00    
           4.72008497e-01     5.05452335e-01     0.00000000e+00    
           4.73357379e-01     5.06588817e-01     0.00000000e+00    
           4.74384934e-01     5.08022368e-01     0.00000000e+00    
           4.75027919e-01     5.09664834e-01     0.00000000e+00    
           4.75028187e-01     5.13165236e-01     0.00000000e+00    
           4.74385172e-01     5.14807761e-01     0.00000000e+00    
           4.73357558e-01     5.16241372e-01     0.00000000e+00    
           4.72008646e-01     5.17377913e-01     0.00000000e+00    
           4.70421433e-01     5.18147290e-01     0.00000000e+00    
           4.68693614e-01     5.18502235e-01     0.00000000e+00    
           4.66931641e-01     5.18420875e-01     0.00000000e+00    
           5.32303810e-01     5.16964078e-01     0.00000000e+00    
           5.31043947e-01     5.15658796e-01     0.00000000e+00    
           5.30155540e-01     5.14077127e-01     0.00000000e+00    
           5.29696345e-01     5.12322068e-01     0.00000000e+00    
           5.29696345e-01     5.10507941e-01     0.00000000e+00    
           5.30155540e-01     5.08752882e-01     0.00000000e+00    
           5.31043947e-01     5.07171214e-01     0.00000000e+00    
           5.32303810e-01     5.05865932e-01     0.00000000e+00    
           4.68517244e-01     5.32760799e-01     0.00000000e+00    
           4.68509018e-01     5.30844629e-01     0.00000000e+00    
           4.68960851e-01     5.28982460e-01     0.00000000e+00    
           4.69846308e-01     5.27283132e-01     0.00000000e+00    
           4.71113682e-01     5.25845945e-01     0.00000000e+00    
           4.72688884e-01     5.24754822e-01     0.00000000e+00    
           4.74479854e-01     5.24073541e-01     0.00000000e+00    
           4.78284091e-01     5.24073601e-01     0.00000000e+00    
           4.80075032e-01     5.24754822e-01     0.00000000e+00    
           4.81650203e-01     5.25845885e-01     0.00000000e+00    
           4.82917547e-01     5.27283013e-01     0.00000000e+00    
           4.83803004e-01     5.28982282e-01     0.00000000e+00    
           4.84254897e-01     5.30844331e-01     0.00000000e+00    
           4.84246761e-01     5.32760441e-01     0.00000000e+00    
           4.82887864e-01     4.67691004e-01     0.00000000e+00    
           4.81620818e-01     4.69110936e-01     0.00000000e+00    
           4.80051905e-01     4.70188022e-01     0.00000000e+00    
           4.78271484e-01     4.70860153e-01     0.00000000e+00    
           4.76382166e-01     4.71088618e-01     0.00000000e+00    
           4.74492878e-01     4.70860243e-01     0.00000000e+00    
           4.72712427e-01     4.70188200e-01     0.00000000e+00    
           4.71143454e-01     4.69111174e-01     0.00000000e+00    
           4.69876349e-01     4.67691302e-01     0.00000000e+00    
           4.88103986e-01     5.33086061e-01     0.00000000e+00    
           4.87431526e-01     5.31323195e-01     0.00000000e+00    
           4.87231195e-01     5.29447019e-01     0.00000000e+00    
           4.87516224e-01     5.27581930e-01     0.00000000e+00    
           4.88267750e-01     5.25851250e-01     0.00000000e+00    
           4.89436030e-01     5.24369657e-01     0.00000000e+00    
           4.90943670e-01     5.23235261e-01     0.00000000e+00    
           4.92690891e-01     5.22523046e-01     0.00000000e+00    
           4.96432930e-01     5.22523701e-01     0.00000000e+00    
           4.98180002e-01     5.23235798e-01     0.00000000e+00    
           4.99687493e-01     5.24370134e-01     0.00000000e+00    
           5.00855684e-01     5.25851607e-01     0.00000000e+00    
           5.01607120e-01     5.27582109e-01     0.00000000e+00    
           5.01892149e-01     5.29447079e-01     0.00000000e+00    
           5.01691818e-01     5.31323016e-01     0.00000000e+00    
           5.01019418e-01     5.33085763e-01     0.00000000e+00    
           4.98371124e-01     4.67269689e-01     0.00000000e+00    
           4.96539861e-01     4.68064904e-01     0.00000000e+00    
           4.94562000e-01     4.68336672e-01     0.00000000e+00    
           4.92584139e-01     4.68064904e-01     0.00000000e+00    
           4.90752876e-01     4.67269689e-01     0.00000000e+00    
           5.32269001e-01     4.75995690e-01     0.00000000e+00    
           5.31541944e-01     4.77750987e-01     0.00000000e+00    
           5.30385315e-01     4.79258329e-01     0.00000000e+00    
           5.28877974e-01     4.80414927e-01     0.00000000e+00    
[...]
      <PointData>
        <DataArray type="Float32" Name="Displacement" NumberOfComponents="3">
           7.74894143e-04     1.34863018e-03     0.00000000e+00    
           7.65891746e-04     1.52961584e-03     0.00000000e+00    
           8.27670505e-04     1.44292263e-03     0.00000000e+00    
           7.20818527e-04     1.42216065e-03     0.00000000e+00    
           7.80959963e-04     1.35859242e-03     0.00000000e+00    
           7.20818527e-04     1.42216065e-03     0.00000000e+00    
           8.27670505e-04     1.44292263e-03     0.00000000e+00    
           1.05194305e-03     1.96800940e-03     0.00000000e+00    
           1.04644301e-03     2.02498352e-03     0.00000000e+00    
           1.00392161e-03     1.97725347e-03     0.00000000e+00    
           2.14429983e-05    -2.50165249e-05     0.00000000e+00    
           2.69430311e-05    -8.19905399e-05     0.00000000e+00    
           1.05316751e-03     1.93268678e-03     0.00000000e+00    
           1.04821927e-03     2.00389163e-03     0.00000000e+00    
           9.60347825e-04     1.94727047e-03     0.00000000e+00    
           2.32193142e-05    -4.61082709e-05     0.00000000e+00    
           2.81674893e-05    -1.17313240e-04     0.00000000e+00    
           2.73013517e-04     3.51260533e-04     0.00000000e+00    
           2.61756475e-04     4.18984331e-04     0.00000000e+00    
           9.67000145e-04     1.69894029e-03     0.00000000e+00    
           1.03881408e-03     1.71766581e-03     0.00000000e+00    
           1.00012205e-03     1.80723506e-03     0.00000000e+00    
           1.03881408e-03     1.71766581e-03     0.00000000e+00    
           9.67000145e-04     1.69894029e-03     0.00000000e+00    
           8.51144025e-04     1.53973221e-03     0.00000000e+00    
           8.41337023e-04     1.62031245e-03     0.00000000e+00    
           1.01592718e-03     1.81207387e-03     0.00000000e+00    
           1.01442903e-03     1.90424570e-03     0.00000000e+00    
           3.83513659e-04     6.52337912e-04     0.00000000e+00    
           3.72528157e-04     6.38274942e-04     0.00000000e+00    
           3.10731353e-04     4.52990702e-04     0.00000000e+00    
           3.10289353e-04     4.38224757e-04     0.00000000e+00    
           3.18376842e-04     4.57487389e-04     0.00000000e+00    
           3.10289353e-04     4.38224757e-04     0.00000000e+00    
           3.10731353e-04     4.52990702e-04     0.00000000e+00    
           5.62559464e-04     9.87802166e-04     0.00000000e+00    
           5.54800499e-04     1.05711375e-03     0.00000000e+00    
           3.45227367e-04     5.19844820e-04     0.00000000e+00    
           3.34520999e-04     4.91340063e-04     0.00000000e+00    
           5.89545700e-04     9.03399487e-04     0.00000000e+00    
           5.83763409e-04     1.01850764e-03     0.00000000e+00    
           6.29710208e-04     1.12890394e-03     0.00000000e+00    
           6.21582090e-04     1.33325346e-03     0.00000000e+00    
           5.96606988e-04     1.02498627e-03     0.00000000e+00    
           5.90175332e-04     1.08788989e-03     0.00000000e+00    
           4.68689046e-04     6.54954812e-04     0.00000000e+00    
           4.57124086e-04     7.64410244e-04     0.00000000e+00    
           1.02500001e-03     2.05000001e-03     0.00000000e+00    
           0.00000000e+00     0.00000000e+00     0.00000000e+00    
           0.00000000e+00     0.00000000e+00     0.00000000e+00    
           1.02500001e-03     2.05000001e-03     0.00000000e+00    
           7.98356778e-04     1.35607948e-03     0.00000000e+00    
           8.21012189e-04     1.36749994e-03     0.00000000e+00    
           8.40277236e-04     1.38427143e-03     0.00000000e+00    
           8.54346727e-04     1.40494516e-03     0.00000000e+00    
           8.62631830e-04     1.42801297e-03     0.00000000e+00    
           8.64540169e-04     1.45205297e-03     0.00000000e+00    
           8.60364235e-04     1.47537864e-03     0.00000000e+00    
           8.50338081e-04     1.49637670e-03     0.00000000e+00    
           8.34737439e-04     1.51362747e-03     0.00000000e+00    
           8.13642982e-04     1.52521569e-03     0.00000000e+00    
           7.90080521e-04     1.53046148e-03     0.00000000e+00    
           7.42356700e-04     1.52332010e-03     0.00000000e+00    
           7.20083190e-04     1.51228881e-03     0.00000000e+00    
           7.00790028e-04     1.49623503e-03     0.00000000e+00    
           6.85999228e-04     1.47633441e-03     0.00000000e+00    
           6.76895550e-04     1.45366439e-03     0.00000000e+00    
           6.73949136e-04     1.42995873e-03     0.00000000e+00    
           6.77667442e-04     1.40649802e-03     0.00000000e+00    
           6.88149361e-04     1.38439692e-03     0.00000000e+00    
           7.05065730e-04     1.36605697e-03     0.00000000e+00    
           7.25188060e-04     1.35323976e-03     0.00000000e+00    
           7.49253726e-04     1.34746754e-03     0.00000000e+00    
           7.17987656e-04     1.40854414e-03     0.00000000e+00    
           7.18573865e-04     1.39496010e-03     0.00000000e+00    
           7.22348341e-04     1.38222321e-03     0.00000000e+00    
           7.29347463e-04     1.37120381e-03     0.00000000e+00    
           7.39543990e-04     1.36279361e-03     0.00000000e+00    
           7.52651191e-04     1.35747856e-03     0.00000000e+00    
           7.67001242e-04     1.35661557e-03     0.00000000e+00    
           7.93755928e-04     1.36334891e-03     0.00000000e+00    
           8.06034717e-04     1.37010473e-03     0.00000000e+00    
           8.16768967e-04     1.37943658e-03     0.00000000e+00    
           8.25190335e-04     1.39062293e-03     0.00000000e+00    
           8.30763543e-04     1.40343443e-03     0.00000000e+00    
           8.33166181e-04     1.41699624e-03     0.00000000e+00    
           8.32077290e-04     1.43054954e-03     0.00000000e+00    
           8.19407462e-04     1.45391014e-03     0.00000000e+00    
           8.07543634e-04     1.46200671e-03     0.00000000e+00    
           7.93164247e-04     1.46584166e-03     0.00000000e+00    
           7.78017740e-04     1.46557391e-03     0.00000000e+00    
           7.64106051e-04     1.46136654e-03     0.00000000e+00    
           7.50076608e-04     1.45531236e-03     0.00000000e+00    
           7.37385650e-04     1.44683779e-03     0.00000000e+00    
           7.27387087e-04     1.43546518e-03     0.00000000e+00    
           1.03681907e-03     2.02238280e-03     0.00000000e+00    
           1.02911133e-03     2.01792270e-03     0.00000000e+00    
           1.02251768e-03     2.01288820e-03     0.00000000e+00    
           1.01599877e-03     2.00704508e-03     0.00000000e+00    
           1.01038814e-03     2.00038007e-03     0.00000000e+00    
           1.00639253e-03     1.99303706e-03     0.00000000e+00    
           1.00409822e-03     1.98510359e-03     0.00000000e+00    
           1.00571208e-03     1.96992955e-03     0.00000000e+00    
           1.00945064e-03     1.96394953e-03     0.00000000e+00    
           1.01444242e-03     1.95941329e-03     0.00000000e+00    
           1.02046365e-03     1.95643911e-03     0.00000000e+00    
           1.02736417e-03     1.95673853e-03     0.00000000e+00    
           1.03479181e-03     1.95997325e-03     0.00000000e+00    
           1.04317442e-03     1.96347735e-03     0.00000000e+00    
           3.51306408e-05    -7.66159501e-05     0.00000000e+00    
           4.14776405e-05    -6.99228040e-05     0.00000000e+00    
           4.60285373e-05    -6.24280874e-05     0.00000000e+00    
           4.83571639e-05    -5.44008253e-05     0.00000000e+00    
           4.84788252e-05    -4.67003447e-05     0.00000000e+00    
           4.66483179e-05    -3.96228788e-05     0.00000000e+00    
           4.30902001e-05    -3.34904144e-05     0.00000000e+00    
           3.80050660e-05    -2.86698905e-05     0.00000000e+00    
           3.04410132e-05    -2.57767279e-05     0.00000000e+00    
           1.03716785e-03     2.00786069e-03     0.00000000e+00    
           1.02543016e-03     2.00779852e-03     0.00000000e+00    
           1.01282541e-03     2.00524437e-03     0.00000000e+00    
           9.98944975e-04     2.00035679e-03     0.00000000e+00    
           9.84940212e-04     1.99390040e-03     0.00000000e+00    
           9.73666843e-04     1.98443769e-03     0.00000000e+00    
           9.65678191e-04     1.97286950e-03     0.00000000e+00    
           9.61215817e-04     1.96015788e-03     0.00000000e+00    
           9.62843711e-04     1.93503231e-03     0.00000000e+00    
           9.68948239e-04     1.92430930e-03     0.00000000e+00    
           9.78015829e-04     1.91631005e-03     0.00000000e+00    
           9.89133492e-04     1.91128277e-03     0.00000000e+00    
           1.00157678e-03     1.90990057e-03     0.00000000e+00    
           1.01522461e-03     1.91134424e-03     0.00000000e+00    
           1.02929829e-03     1.91619643e-03     0.00000000e+00    
           1.04228745e-03     1.92316319e-03     0.00000000e+00    
           3.66644854e-05    -1.05218474e-04     0.00000000e+00    
           4.13975067e-05    -9.18316946e-05     0.00000000e+00    
           4.23377787e-05    -7.82774950e-05     0.00000000e+00    
           3.93944756e-05    -6.54270116e-05     0.00000000e+00    
           3.28168098e-05    -5.43243405e-05     0.00000000e+00    
           2.82277557e-04     3.55183874e-04     0.00000000e+00    
           2.90260010e-04     3.60758655e-04     0.00000000e+00    
           2.96435319e-04     3.68011039e-04     0.00000000e+00    
           3.01457243e-04     3.76361335e-04     0.00000000e+00    
           3.04759014e-04     3.85909108e-04     0.00000000e+00    
           3.05296911e-04     3.95575073e-04     0.00000000e+00    
           3.03557288e-04     4.04838647e-04     0.00000000e+00    
           2.98866042e-04     4.12815192e-04     0.00000000e+00    
           2.91983684e-04     4.19067219e-04     0.00000000e+00    
           2.82839756e-04     4.22714424e-04     0.00000000e+00    
           2.71829485e-04     4.22804413e-04     0.00000000e+00    
           2.52001337e-04     4.14553942e-04     0.00000000e+00    
           2.43571616e-04     4.08302440e-04     0.00000000e+00    
           2.36278152e-04     4.00882447e-04     0.00000000e+00    
           2.30929611e-04     3.92228772e-04     0.00000000e+00    
           2.28012694e-04     3.82884726e-04     0.00000000e+00    
           2.27670767e-04     3.73492687e-04     0.00000000e+00    
           2.29658181e-04     3.64609965e-04     0.00000000e+00    
           2.33999890e-04     3.57138924e-04     0.00000000e+00    
           2.41217567e-04     3.51172523e-04     0.00000000e+00    
           2.51474557e-04     3.48004454e-04     0.00000000e+00    
           2.62867601e-04     3.48156143e-04     0.00000000e+00    
           1.04849937e-03     1.72894401e-03     0.00000000e+00    
           1.05526356e-03     1.74198323e-03     0.00000000e+00    
           1.05880306e-03     1.75577449e-03     0.00000000e+00    
           1.05916173e-03     1.76961720e-03     0.00000000e+00    
           1.05607975e-03     1.78259297e-03     0.00000000e+00    
           1.04935491e-03     1.79406093e-03     0.00000000e+00    
           1.03925436e-03     1.80271559e-03     0.00000000e+00    
           1.02775323e-03     1.80757127e-03     0.00000000e+00    
           1.01495918e-03     1.80891156e-03     0.00000000e+00    
           9.84161743e-04     1.80230918e-03     0.00000000e+00    
           9.68967448e-04     1.79482705e-03     0.00000000e+00    
           9.56679462e-04     1.78443897e-03     0.00000000e+00    
           9.47312859e-04     1.77200383e-03     0.00000000e+00    
           9.41680977e-04     1.75820093e-03     0.00000000e+00    
           9.39702208e-04     1.74386613e-03     0.00000000e+00    
           9.41440056e-04     1.72992947e-03     0.00000000e+00    
           9.46550746e-04     1.71725976e-03     0.00000000e+00    
           9.55200114e-04     1.70668727e-03     0.00000000e+00    
           9.79656936e-04     1.69521314e-03     0.00000000e+00    
           9.93010588e-04     1.69527123e-03     0.00000000e+00    
           1.00576971e-03     1.69807184e-03     0.00000000e+00    
           1.01732998e-03     1.70318340e-03     0.00000000e+00    
           1.02853135e-03     1.70943444e-03     0.00000000e+00    
           8.61347944e-04     1.54456787e-03     0.00000000e+00    
           8.71073455e-04     1.55068131e-03     0.00000000e+00    
           8.80112348e-04     1.55815296e-03     0.00000000e+00    
           8.86751921e-04     1.56735815e-03     0.00000000e+00    
           8.90781521e-04     1.57760235e-03     0.00000000e+00    
           8.91985837e-04     1.58819533e-03     0.00000000e+00    
           8.90541764e-04     1.59823045e-03     0.00000000e+00    
           8.86827474e-04     1.60741725e-03     0.00000000e+00    
           8.80858919e-04     1.61504059e-03     0.00000000e+00    
           8.73147859e-04     1.62095472e-03     0.00000000e+00    
           8.62955989e-04     1.62394007e-03     0.00000000e+00    
           8.52060330e-04     1.62292330e-03     0.00000000e+00    
           8.31501151e-04     1.61554082e-03     0.00000000e+00    
           8.22224130e-04     1.60958234e-03     0.00000000e+00    
           8.14055849e-04     1.60203432e-03     0.00000000e+00    
           8.07699573e-04     1.59319176e-03     0.00000000e+00    
           8.03417759e-04     1.58338377e-03     0.00000000e+00    
           8.01549875e-04     1.57306425e-03     0.00000000e+00    
           8.02349474e-04     1.56306929e-03     0.00000000e+00    
           8.05336575e-04     1.55383430e-03     0.00000000e+00    
           8.10744881e-04     1.54602958e-03     0.00000000e+00    
           8.18437256e-04     1.53993070e-03     0.00000000e+00    
           8.28780758e-04     1.53665571e-03     0.00000000e+00    
           8.40128807e-04     1.53686851e-03     0.00000000e+00    
           1.03081262e-03     1.81713537e-03     0.00000000e+00    
           1.04480283e-03     1.82523555e-03     0.00000000e+00    
           1.05589512e-03     1.83616241e-03     0.00000000e+00    
           1.06322241e-03     1.84895995e-03     0.00000000e+00    
           1.06646807e-03     1.86268287e-03     0.00000000e+00    
           1.06556411e-03     1.87618157e-03     0.00000000e+00    
           1.06092135e-03     1.88838399e-03     0.00000000e+00    
           1.05258985e-03     1.89821515e-03     0.00000000e+00    
           1.04122714e-03     1.90435571e-03     0.00000000e+00    
           1.02842099e-03     1.90589332e-03     0.00000000e+00    
           1.00008992e-03     1.89873588e-03     0.00000000e+00    
           9.87141277e-04     1.89037283e-03     0.00000000e+00    
           9.76757263e-04     1.87943480e-03     0.00000000e+00    
           9.69873858e-04     1.86656998e-03     0.00000000e+00    
           9.66656429e-04     1.85292272e-03     0.00000000e+00    
           9.67531814e-04     1.83968083e-03     0.00000000e+00    
           9.71770729e-04     1.82773999e-03     0.00000000e+00    
           9.79496283e-04     1.81814760e-03     0.00000000e+00    
           9.89895663e-04     1.81250088e-03     0.00000000e+00    
           1.00185978e-03     1.81056466e-03     0.00000000e+00    
           3.83287901e-04     6.55160169e-04     0.00000000e+00    
           3.82323167e-04     6.57026132e-04     0.00000000e+00    
           3.80821468e-04     6.58097968e-04     0.00000000e+00    
           3.79353238e-04     6.58289646e-04     0.00000000e+00    
           3.77991615e-04     6.57668279e-04     0.00000000e+00    
           3.77000804e-04     6.56500517e-04     0.00000000e+00    
           3.76255397e-04     6.54804462e-04     0.00000000e+00    
           3.75850708e-04     6.52776565e-04     0.00000000e+00    
           3.74262512e-04     6.50340226e-04     0.00000000e+00    
           3.72712908e-04     6.46839209e-04     0.00000000e+00    
           3.71778675e-04     6.42462983e-04     0.00000000e+00    
           3.73725285e-04     6.35897857e-04     0.00000000e+00    
           3.75089818e-04     6.34154538e-04     0.00000000e+00    
           3.77021934e-04     6.33413554e-04     0.00000000e+00    
           3.78440571e-04     6.33478689e-04     0.00000000e+00    
           3.79561767e-04     6.34211698e-04     0.00000000e+00    
           3.80165380e-04     6.35433360e-04     0.00000000e+00    
           3.80661164e-04     6.36993092e-04     0.00000000e+00    
           3.80948855e-04     6.38842175e-04     0.00000000e+00    
           3.81647347e-04     6.41209306e-04     0.00000000e+00    
           3.82871396e-04     6.44066778e-04     0.00000000e+00    
           3.83839593e-04     6.48042827e-04     0.00000000e+00    
           3.11901123e-04     4.37471637e-04     0.00000000e+00    
           3.13480734e-04     4.37385344e-04     0.00000000e+00    
           3.14852572e-04     4.38061135e-04     0.00000000e+00    
           3.15856450e-04     4.39244643e-04     0.00000000e+00    
           3.16718273e-04     4.41007316e-04     0.00000000e+00    
           3.17580445e-04     4.43135563e-04     0.00000000e+00    
           3.18710430e-04     4.45823011e-04     0.00000000e+00    
           3.19522806e-04     4.49968677e-04     0.00000000e+00    
           3.19276820e-04     4.54313180e-04     0.00000000e+00    
           3.17148952e-04     4.59595962e-04     0.00000000e+00    
           3.15744925e-04     4.61328513e-04     0.00000000e+00    
           3.14832403e-04     4.62654192e-04     0.00000000e+00    
           3.13916302e-04     4.62942407e-04     0.00000000e+00    
           3.13295430e-04     4.62585798e-04     0.00000000e+00    
           3.12548684e-04     4.61620803e-04     0.00000000e+00    
           3.11997836e-04     4.60094714e-04     0.00000000e+00    
           3.11696989e-04     4.58183873e-04     0.00000000e+00    
           3.11605661e-04     4.55703528e-04     0.00000000e+00    
           3.09667492e-04     4.49287589e-04     0.00000000e+00    
           3.09189607e-04     4.44653037e-04     0.00000000e+00    
           3.09442490e-04     4.41506825e-04     0.00000000e+00    
           3.09502793e-04     4.39863477e-04     0.00000000e+00    
           5.71062206e-04     9.92537825e-04     0.00000000e+00    
           5.79264888e-04     9.98208998e-04     0.00000000e+00    
           5.86169539e-04     1.00521906e-03     0.00000000e+00    
           5.92062192e-04     1.01375359e-03     0.00000000e+00    
           5.95609250e-04     1.02325587e-03     0.00000000e+00    
           5.96555939e-04     1.03280134e-03     0.00000000e+00    
           5.94968966e-04     1.04173180e-03     0.00000000e+00    
           5.91338263e-04     1.04947039e-03     0.00000000e+00    
           5.85855742e-04     1.05539872e-03     0.00000000e+00    
           5.77681232e-04     1.05884322e-03     0.00000000e+00    
           5.66772767e-04     1.05932658e-03     0.00000000e+00    
           5.43826085e-04     1.05236808e-03     0.00000000e+00    
           5.34709718e-04     1.04554498e-03     0.00000000e+00    
           5.27704833e-04     1.03746320e-03     0.00000000e+00    
           5.22461603e-04     1.02851354e-03     0.00000000e+00    
           5.19569672e-04     1.01900555e-03     0.00000000e+00    
           5.19057328e-04     1.00926391e-03     0.00000000e+00    
           5.21135284e-04     1.00018259e-03     0.00000000e+00    
           5.25943178e-04     9.92310350e-04     0.00000000e+00    
           5.33270533e-04     9.86601575e-04     0.00000000e+00    