<?xml version="1.0"?>
<VTKFile type="UnstructuredGrid" version="0.1">
  <UnstructuredGrid>
    <Piece NumberOfPoints="1034" NumberOfCells="1614">
      <Points>
        <DataArray type="Float32" NumberOfComponents="3">
           5.21582007e-01     5.11657000e-01     0.00000000e+00    
           5.07319987e-01     5.11657000e-01     0.00000000e+00    
           4.65243995e-01     5.17907977e-01     0.00000000e+00    
           4.65243995e-01     5.04921973e-01     0.00000000e+00    
           4.75246996e-01     5.11415005e-01     0.00000000e+00    
           5.33852994e-01     5.04921973e-01     0.00000000e+00    
           5.33852994e-01     5.17907977e-01     0.00000000e+00    
           4.83779997e-01     5.34618974e-01     0.00000000e+00    
           4.68984991e-01     5.34618974e-01     0.00000000e+00    
           4.76381987e-01     5.23841977e-01     0.00000000e+00    
           4.68984991e-01     4.66010004e-01     0.00000000e+00    
           4.83779997e-01     4.66010004e-01     0.00000000e+00    
           4.99920011e-01     5.34618974e-01     0.00000000e+00    
           4.89203990e-01     5.34618974e-01     0.00000000e+00    
           4.94562000e-01     5.22280991e-01     0.00000000e+00    
           4.89203990e-01     4.66010004e-01     0.00000000e+00    
           4.99920011e-01     4.66010004e-01     0.00000000e+00    
           5.32517016e-01     4.74112004e-01     0.00000000e+00    
           5.17961025e-01     4.74112004e-01     0.00000000e+00    
           5.33852994e-01     5.19801974e-01     0.00000000e+00    
           5.33852994e-01     5.29603004e-01     0.00000000e+00    
           5.19536972e-01     5.24702013e-01     0.00000000e+00    
           4.65243995e-01     5.29603004e-01     0.00000000e+00    
           4.65243995e-01     5.19801974e-01     0.00000000e+00    
           4.92487997e-01     5.17117977e-01     0.00000000e+00    
           4.76904988e-01     5.17117977e-01     0.00000000e+00    
           5.17996013e-01     5.27033985e-01     0.00000000e+00    
           5.04473984e-01     5.27033985e-01     0.00000000e+00    
           5.08446991e-01     4.83435005e-01     0.00000000e+00    
           4.94414002e-01     4.83435005e-01     0.00000000e+00    
           4.65243995e-01     4.83101994e-01     0.00000000e+00    
           4.65243995e-01     4.74415004e-01     0.00000000e+00    
           4.78336990e-01     4.78758007e-01     0.00000000e+00    
           5.33852994e-01     4.74415004e-01     0.00000000e+00    
           5.33852994e-01     4.83101994e-01     0.00000000e+00    
           4.80668008e-01     4.95810986e-01     0.00000000e+00    
           4.66084987e-01     4.95810986e-01     0.00000000e+00    
           4.93930012e-01     4.79214013e-01     0.00000000e+00    
           4.78967011e-01     4.79214013e-01     0.00000000e+00    
           5.09284973e-01     4.97658014e-01     0.00000000e+00    
           4.95503992e-01     4.97658014e-01     0.00000000e+00    
           5.33011973e-01     5.01751006e-01     0.00000000e+00    
           5.17829001e-01     5.01751006e-01     0.00000000e+00    
           4.95451003e-01     5.00564992e-01     0.00000000e+00    
           4.80922014e-01     5.00564992e-01     0.00000000e+00    
           5.25367022e-01     4.88312006e-01     0.00000000e+00    
           5.09521008e-01     4.88312006e-01     0.00000000e+00    
           4.65243995e-01     5.34618974e-01     0.00000000e+00    
           4.65243995e-01     4.66010004e-01     0.00000000e+00    
           5.33852994e-01     4.66010004e-01     0.00000000e+00    
           5.33852994e-01     5.34618974e-01     0.00000000e+00    
           5.21338999e-01     5.13502657e-01     0.00000000e+00    
           5.20626605e-01     5.15222490e-01     0.00000000e+00    
           5.19493401e-01     5.16699374e-01     0.00000000e+00    
           5.18016517e-01     5.17832637e-01     0.00000000e+00    
           5.16296625e-01     5.18545032e-01     0.00000000e+00    
           5.14451027e-01     5.18787980e-01     0.00000000e+00    
           5.12605369e-01     5.18545032e-01     0.00000000e+00    
           5.10885477e-01     5.17832637e-01     0.00000000e+00    
           5.09408593e-01     5.16699374e-01     0.00000000e+00    
           5.08275390e-01     5.15222490e-01     0.00000000e+00    
           5.07562995e-01     5.13502657e-01     0.00000000e+00    
           5.07562995e-01     5.09811342e-01     0.00000000e+00    
           5.08275390e-01     5.08091509e-01     0.00000000e+00    
           5.09408593e-01     5.06614625e-01     0.00000000e+00    
           5.10885477e-01     5.05481362e-01     0.00000000e+00    
           5.12605369e-01     5.04768968e-01     0.00000000e+00    
           5.14451027e-01     5.04526019e-01     0.00000000e+00    
           5.16296625e-01     5.04768968e-01     0.00000000e+00    
           5.18016517e-01     5.05481362e-01     0.00000000e+00    
           5.19493401e-01     5.06614625e-01     0.00000000e+00    
           5.20626605e-01     5.08091509e-01     0.00000000e+00    
           5.21338999e-01     5.09811342e-01     0.00000000e+00    
           4.66931671e-01     5.04409373e-01     0.00000000e+00    
           4.68693614e-01     5.04328012e-01     0.00000000e+00    
           4.70421344e-01     5.04682958e-01     0.00000000e+00    
           4.72008497e-01     5.05452335e-01     0.00000000e+00    
           4.73357379e-01     5.06588817e-01     0.00000000e+00    
           4.74384934e-01     5.08022368e-01     0.00000000e+00    
           4.75027919e-01     5.09664834e-01     0.00000000e+00    
           4.75028187e-01     5.13165236e-01     0.00000000e+00    
           4.74385172e-01     5.14807761e-01     0.00000000e+00    
           4.73357558e-01     5.16241372e-01     0.00000000e+00    
           4.72008646e-01     5.17377913e-01     0.00000000e+00    
           4.70421433e-01     5.18147290e-01     0.00000000e+00    
           4.68693614e-01     5.18502235e-01     0.00000000e+00    
           4.66931641e-01     5.18420875e-01     0.00000000e+00    
           5.32303810e-01     5.16964078e-01     0.00000000e+00    
           5.31043947e-01     5.15658796e-01     0.00000000e+00    
           5.30155540e-01     5.14077127e-01     0.00000000e+00    
           5.29696345e-01     5.12322068e-01     0.00000000e+00    
           5.29696345e-01     5.10507941e-01     0.00000000e+00    
           5.30155540e-01     5.08752882e-01     0.00000000e+00    
           5.31043947e-01     5.07171214e-01     0.00000000e+00    
           5.32303810e-01     5.05865932e-01     0.00000000e+00    
           4.68517244e-01     5.32760799e-01     0.00000000e+00    
           4.68509018e-01     5.30844629e-01     0.00000000e+00    
           4.68960851e-01     5.28982460e-01     0.00000000e+00    
           4.69846308e-01     5.27283132e-01     0.00000000e+00    
           4.71113682e-01     5.25845945e-01     0.00000000e+00    
           4.72688884e-01     5.24754822e-01     0.00000000e+00    
           4.74479854e-01     5.24073541e-01     0.00000000e+00    
           4.78284091e-01     5.24073601e-01     0.00000000e+00    
           4.80075032e-01     5.24754822e-01     0.00000000e+00    
           4.81650203e-01     5.25845885e-01     0.00000000e+00    
           4.82917547e-01     5.27283013e-01     0.00000000e+00    
           4.83803004e-01     5.28982282e-01     0.00000000e+00    
           4.84254897e-01     5.30844331e-01     0.00000000e+00    
           4.84246761e-01     5.32760441e-01     0.00000000e+00    
           4.82887864e-01     4.67691004e-01     0.00000000e+00    
           4.81620818e-01     4.69110936e-01     0.00000000e+00    
           4.80051905e-01     4.70188022e-01     0.00000000e+00    
           4.78271484e-01     4.70860153e-01     0.00000000e+00    
           4.76382166e-01     4.71088618e-01     0.00000000e+00    
           4.74492878e-01     4.70860243e-01     0.00000000e+00    
           4.72712427e-01     4.70188200e-01     0.00000000e+00    
           4.71143454e-01     4.69111174e-01     0.00000000e+00    
           4.69876349e-01     4.67691302e-01     0.00000000e+00    
           4.88103986e-01     5.33086061e-01     0.00000000e+00    
           4.87431526e-01     5.31323195e-01     0.00000000e+00    
           4.87231195e-01     5.29447019e-01     0.00000000e+00    
           4.87516224e-01     5.27581930e-01     0.00000000e+00    
           4.88267750e-01     5.25851250e-01     0.00000000e+00    
           4.89436030e-01     5.24369657e-01     0.00000000e+00    
           4.90943670e-01     5.23235261e-01     0.00000000e+00    
           4.92690891e-01     5.22523046e-01     0.00000000e+00    
           4.96432930e-01     5.22523701e-01     0.00000000e+00    
           4.98180002e-01     5.23235798e-01     0.00000000e+00    
           4.99687493e-01     5.24370134e-01     0.00000000e+00    
           5.00855684e-01     5.25851607e-01     0.00000000e+00    
           5.01607120e-01     5.27582109e-01     0.00000000e+00    
           5.01892149e-01     5.29447079e-01     0.00000000e+00    
           5.01691818e-01     5.31323016e-01     0.00000000e+00    
           5.01019418e-01     5.33085763e-01     0.00000000e+00    
           4.98371124e-01     4.67269689e-01     0.00000000e+00    
           4.96539861e-01     4.68064904e-01     0.00000000e+00    
           4.94562000e-01     4.68336672e-01     0.00000000e+00    
           4.92584139e-01     4.68064904e-01     0.00000000e+00    
           4.90752876e-01     4.67269689e-01     0.00000000e+00    
           5.32269001e-01     4.75995690e-01     0.00000000e+00    
           5.31541944e-01     4.77750987e-01     0.00000000e+00    
           5.30385315e-01     4.79258329e-01     0.00000000e+00    
           5.28877974e-01     4.80414927e-01     0.00000000e+00    
[...]
      <PointData>
        <DataArray type="Float32" Name="Displacement" NumberOfComponents="3">
           9.33283998e-04     1.52358452e-05     0.00000000e+00    
           9.16115649e-04     2.75500879e-05     0.00000000e+00    
           2.79939937e-04     1.14735694e-05     0.00000000e+00    
           2.52473721e-04     9.05334582e-06     0.00000000e+00    
           2.82448862e-04    -2.13721523e-06     0.00000000e+00    
           1.10247370e-03     9.05334582e-06     0.00000000e+00    
           1.12993992e-03     1.14735694e-05     0.00000000e+00    
           5.29036333e-04    -2.33656283e-05     0.00000000e+00    
           5.09635312e-04     1.57621926e-05     0.00000000e+00    
           4.86246747e-04    -5.08757648e-06     0.00000000e+00    
           8.46353141e-05     1.57621926e-05     0.00000000e+00    
           1.04036342e-04    -2.33656283e-05     0.00000000e+00    
           7.06347055e-04    -5.46924239e-05     0.00000000e+00    
           6.91303227e-04    -2.07121611e-05     0.00000000e+00    
           6.51462644e-04    -4.10591565e-05     0.00000000e+00    
           2.66303250e-04    -2.07121611e-05     0.00000000e+00    
           2.81347049e-04    -5.46924239e-05     0.00000000e+00    
           8.14214174e-04     2.86187587e-05     0.00000000e+00    
           7.94012798e-04     5.34897881e-05     0.00000000e+00    
           1.10398931e-03     3.65841788e-06     0.00000000e+00    
           1.14587811e-03     3.12206521e-06     0.00000000e+00    
           1.10278116e-03     5.40747242e-05     0.00000000e+00    
           2.95878068e-04     3.12206521e-06     0.00000000e+00    
           2.53989274e-04     3.65841788e-06     0.00000000e+00    
           5.14218118e-04    -3.41056257e-05     0.00000000e+00    
           4.93362721e-04     1.10742158e-05     0.00000000e+00    
           9.60814476e-04     2.32912716e-05     0.00000000e+00    
           9.38576006e-04     3.78218174e-05     0.00000000e+00    
           5.55618200e-04    -1.81792711e-05     0.00000000e+00    
           5.34598483e-04     3.17677113e-05     0.00000000e+00    
           1.41691897e-04     3.85110870e-05     0.00000000e+00    
           9.88173924e-05     3.60862432e-05     0.00000000e+00    
           1.41396769e-04    -1.89730144e-05     0.00000000e+00    
           9.48817411e-04     3.60862432e-05     0.00000000e+00    
           9.91691952e-04     3.85110870e-05     0.00000000e+00    
           2.74917285e-04    -8.98264898e-06     0.00000000e+00    
           2.52659986e-04     3.93846094e-05     0.00000000e+00    
           2.95708916e-04    -4.23910606e-05     0.00000000e+00    
           2.71777040e-04     1.88159429e-05     0.00000000e+00    
           6.31939678e-04    -3.74953675e-06     0.00000000e+00    
           6.11734751e-04     3.57329518e-05     0.00000000e+00    
           9.71178699e-04    -4.33336618e-06     0.00000000e+00    
           9.50656657e-04     4.15629402e-05     0.00000000e+00    
           4.76882327e-04    -3.70062044e-05     0.00000000e+00    
           4.52683453e-04    -1.10082383e-05     0.00000000e+00    
           7.78795977e-04     3.54188924e-05     0.00000000e+00    
           7.56663445e-04     5.29118552e-05     0.00000000e+00    
           4.25000006e-04     0.00000000e+00     0.00000000e+00    
           0.00000000e+00     0.00000000e+00     0.00000000e+00    
           8.50000011e-04     0.00000000e+00     0.00000000e+00    
           1.27500005e-03     0.00000000e+00     0.00000000e+00    
           9.35660559e-04     1.59430710e-05     0.00000000e+00    
           9.37785488e-04     1.73031040e-05     0.00000000e+00    
           9.39119549e-04     1.88277281e-05     0.00000000e+00    
           9.39310878e-04     2.01933253e-05     0.00000000e+00    
           9.38383164e-04     2.11462157e-05     0.00000000e+00    
           9.36332508e-04     2.19065441e-05     0.00000000e+00    
           9.34097858e-04     2.31367030e-05     0.00000000e+00    
           9.31118906e-04     2.48832166e-05     0.00000000e+00    
           9.27139248e-04     2.65533163e-05     0.00000000e+00    
           9.23246145e-04     2.76301580e-05     0.00000000e+00    
           9.19514627e-04     2.79332889e-05     0.00000000e+00    
           9.13224358e-04     2.64047467e-05     0.00000000e+00    
           9.11102863e-04     2.47657208e-05     0.00000000e+00    
           9.10003437e-04     2.30110163e-05     0.00000000e+00    
           9.09947965e-04     2.14110023e-05     0.00000000e+00    
           9.11418640e-04     1.97296376e-05     0.00000000e+00    
           9.14700737e-04     1.81679079e-05     0.00000000e+00    
           9.18796170e-04     1.73340013e-05     0.00000000e+00    
           9.23206971e-04     1.69227606e-05     0.00000000e+00    
           9.26674576e-04     1.56441947e-05     0.00000000e+00    
           9.29508475e-04     1.51408240e-05     0.00000000e+00    
           9.31185263e-04     1.48735326e-05     0.00000000e+00    
           2.54618266e-04     7.17591183e-06     0.00000000e+00    
           2.57806154e-04     6.53224515e-06     0.00000000e+00    
           2.60899513e-04     5.29540648e-06     0.00000000e+00    
           2.64561386e-04     3.23950280e-06     0.00000000e+00    
           2.68749864e-04     7.30386319e-07     0.00000000e+00    
           2.73409387e-04    -1.16029491e-06     0.00000000e+00    
           2.78088177e-04    -2.12059103e-06     0.00000000e+00    
           2.85959395e-04    -1.65260178e-06     0.00000000e+00    
           2.88432901e-04    -6.79635832e-07     0.00000000e+00    
           2.89800926e-04     8.26050155e-07     0.00000000e+00    
           2.90031341e-04     3.03064508e-06     0.00000000e+00    
           2.89126911e-04     5.77661012e-06     0.00000000e+00    
           2.86857190e-04     8.57572559e-06     0.00000000e+00    
           2.83564208e-04     1.02102031e-05     0.00000000e+00    
           1.12680625e-03     1.35424598e-05     0.00000000e+00    
           1.12361100e-03     1.53127348e-05     0.00000000e+00    
           1.11961272e-03     1.66642822e-05     0.00000000e+00    
           1.11494982e-03     1.69946597e-05     0.00000000e+00    
           1.11009914e-03     1.63107870e-05     0.00000000e+00    
           1.10613764e-03     1.47058499e-05     0.00000000e+00    
           1.10371574e-03     1.26137347e-05     0.00000000e+00    
           1.10264809e-03     1.05736781e-05     0.00000000e+00    
           5.02314593e-04     1.61736352e-05     0.00000000e+00    
           4.95689863e-04     1.53657256e-05     0.00000000e+00    
           4.90084116e-04     1.38629084e-05     0.00000000e+00    
           4.85954719e-04     1.14612403e-05     0.00000000e+00    
           4.83442942e-04     7.97792654e-06     0.00000000e+00    
           4.82822914e-04     3.56710461e-06     0.00000000e+00    
           4.83966840e-04    -1.13944009e-06     0.00000000e+00    
           4.89889295e-04    -8.47868523e-06     0.00000000e+00    
           4.93887812e-04    -1.21031235e-05     0.00000000e+00    
           4.98859095e-04    -1.62733431e-05     0.00000000e+00    
           5.04958909e-04    -2.01709045e-05     0.00000000e+00    
           5.12190571e-04    -2.33473984e-05     0.00000000e+00    
           5.18682064e-04    -2.51330366e-05     0.00000000e+00    
           5.24441304e-04    -2.51251240e-05     0.00000000e+00    
           1.07803935e-04    -2.02149567e-05     0.00000000e+00    
           1.10726221e-04    -1.59547726e-05     0.00000000e+00    
           1.12301226e-04    -1.13865253e-05     0.00000000e+00    
           1.12083930e-04    -6.87271404e-06     0.00000000e+00    
           1.10185050e-04    -3.10832957e-06     0.00000000e+00    
           1.07106236e-04     4.88752050e-07     0.00000000e+00    
           1.03273975e-04     5.29335603e-06     0.00000000e+00    
           9.81678822e-05     9.85715451e-06     0.00000000e+00    
           9.15909768e-05     1.35929267e-05     0.00000000e+00    
           6.83738850e-04    -1.70194180e-05     0.00000000e+00    
           6.75930292e-04    -1.46329021e-05     0.00000000e+00    
           6.68398803e-04    -1.41176388e-05     0.00000000e+00    
           6.61678961e-04    -1.56353344e-05     0.00000000e+00    
           6.55652257e-04    -1.96503224e-05     0.00000000e+00    
           6.51472074e-04    -2.43464838e-05     0.00000000e+00    
           6.49146503e-04    -2.94908205e-05     0.00000000e+00    
           6.48717221e-04    -3.50689916e-05     0.00000000e+00    
           6.56331365e-04    -4.67605241e-05     0.00000000e+00    
           6.62449282e-04    -5.13900704e-05     0.00000000e+00    
           6.69311441e-04    -5.52769670e-05     0.00000000e+00    
           6.76353171e-04    -5.87165632e-05     0.00000000e+00    
           6.83664170e-04    -6.15744284e-05     0.00000000e+00    
           6.90901885e-04    -6.24723398e-05     0.00000000e+00    
           6.97313517e-04    -6.16447869e-05     0.00000000e+00    
           7.02526595e-04    -5.88259099e-05     0.00000000e+00    
           2.83747650e-04    -4.92338404e-05     0.00000000e+00    
           2.84270500e-04    -4.30883520e-05     0.00000000e+00    
           2.82812834e-04    -3.68178553e-05     0.00000000e+00    
           2.79079599e-04    -3.08827148e-05     0.00000000e+00    
           2.73526530e-04    -2.55107389e-05     0.00000000e+00    
           8.18341388e-04     2.99564417e-05     0.00000000e+00    
           8.20992049e-04     3.19509745e-05     0.00000000e+00    
           8.22333619e-04     3.36616322e-05     0.00000000e+00    
           8.21589027e-04     3.67890934e-05     0.00000000e+00    
           8.19272886e-04     3.99541568e-05     0.00000000e+00    
           8.16264830e-04     4.29852589e-05     0.00000000e+00    
           8.12168350e-04     4.47579660e-05     0.00000000e+00    
           8.08960875e-04     4.73205182e-05     0.00000000e+00    
           8.06209282e-04     4.93571570e-05     0.00000000e+00    
           8.02695751e-04     5.13314517e-05     0.00000000e+00    
           7.98453111e-04     5.29098688e-05     0.00000000e+00    
           7.89979298e-04     5.29779900e-05     0.00000000e+00    
           7.86527642e-04     5.15063584e-05     0.00000000e+00    
           7.83946714e-04     4.94192573e-05     0.00000000e+00    
           7.82482326e-04     4.69216611e-05     0.00000000e+00    
           7.82401301e-04     4.42538258e-05     0.00000000e+00    
           7.83504045e-04     4.10920729e-05     0.00000000e+00    
           7.86227931e-04     3.71284914e-05     0.00000000e+00    
           7.90989725e-04     3.29774957e-05     0.00000000e+00    
           7.96522305e-04     2.98590294e-05     0.00000000e+00    
           8.02541035e-04     2.81554167e-05     0.00000000e+00    
           8.08742829e-04     2.78800562e-05     0.00000000e+00    
           1.14985614e-03     7.78631784e-06     0.00000000e+00    
           1.15189364e-03     1.34869570e-05     0.00000000e+00    
           1.15210388e-03     2.00605009e-05     0.00000000e+00    
           1.14992191e-03     2.70767323e-05     0.00000000e+00    
           1.14498695e-03     3.46942288e-05     0.00000000e+00    
           1.13797479e-03     4.15018694e-05     0.00000000e+00    
           1.12949044e-03     4.68960425e-05     0.00000000e+00    
           1.12035102e-03     5.10502250e-05     0.00000000e+00    
           1.11119205e-03     5.36792104e-05     0.00000000e+00    
           1.09550112e-03     5.22237424e-05     0.00000000e+00    
           1.08963507e-03     4.82863252e-05     0.00000000e+00    
           1.08506717e-03     4.33533096e-05     0.00000000e+00    
           1.08231639e-03     3.78217374e-05     0.00000000e+00    
           1.08165550e-03     3.16636688e-05     0.00000000e+00    
           1.08368578e-03     2.49845380e-05     0.00000000e+00    
           1.08717522e-03     1.85847093e-05     0.00000000e+00    
           1.09218049e-03     1.31933157e-05     0.00000000e+00    
           1.09760358e-03     7.97086341e-06     0.00000000e+00    
           2.61007284e-04     4.07866906e-07     0.00000000e+00    
           2.68929231e-04    -1.67350538e-06     0.00000000e+00    
           2.76972278e-04    -2.32256025e-06     0.00000000e+00    
           2.84379872e-04    -1.60151887e-06     0.00000000e+00    
           2.90795055e-04     2.72955447e-07     0.00000000e+00    
           5.21063746e-04    -3.27416201e-05     0.00000000e+00    
           5.27339522e-04    -2.93736921e-05     0.00000000e+00    
           5.32098755e-04    -2.51128131e-05     0.00000000e+00    
           5.34920837e-04    -2.03012241e-05     0.00000000e+00    
           5.35823987e-04    -1.53812543e-05     0.00000000e+00    
           5.34021645e-04    -1.02337608e-05     0.00000000e+00    
           5.30318124e-04    -6.41440511e-06     0.00000000e+00    
           5.26197779e-04    -2.91293077e-06     0.00000000e+00    
           5.21404902e-04     9.85035626e-07     0.00000000e+00    
           5.15765336e-04     5.06499327e-06     0.00000000e+00    
           5.08734433e-04     8.26850646e-06     0.00000000e+00    
           5.00967610e-04     1.04213059e-05     0.00000000e+00    
           4.86651581e-04     1.03423636e-05     0.00000000e+00    
           4.81161580e-04     8.36939853e-06     0.00000000e+00    
           4.77284368e-04     5.50291861e-06     0.00000000e+00    
           4.75186767e-04     1.19963033e-06     0.00000000e+00    
           4.74812376e-04    -3.64922334e-06     0.00000000e+00    
           4.76113608e-04    -8.55053713e-06     0.00000000e+00    
           4.78174101e-04    -1.35785667e-05     0.00000000e+00    
           4.81548283e-04    -1.87631576e-05     0.00000000e+00    
           4.86526551e-04    -2.39124474e-05     0.00000000e+00    
           4.92653460e-04    -2.85076112e-05     0.00000000e+00    
           4.99664107e-04    -3.18071034e-05     0.00000000e+00    
           5.06973243e-04    -3.37434867e-05     0.00000000e+00    
           9.62927705e-04     2.40292829e-05     0.00000000e+00    
           9.63753322e-04     2.56751300e-05     0.00000000e+00    
           9.63754952e-04     2.74988943e-05     0.00000000e+00    
           9.62941675e-04     2.94639813e-05     0.00000000e+00    
           9.60755860e-04     3.13607670e-05     0.00000000e+00    
           9.57440701e-04     3.30775256e-05     0.00000000e+00    
           9.53281997e-04     3.43177126e-05     0.00000000e+00    
           9.49136505e-04     3.52734351e-05     0.00000000e+00    
           9.45017149e-04     3.62539504e-05     0.00000000e+00    
           9.41468752e-04     3.74761548e-05     0.00000000e+00    
           9.36598808e-04     3.75826239e-05     0.00000000e+00    
           9.35665506e-04     3.65047817e-05     0.00000000e+00    
           9.35871212e-04     3.51815434e-05     0.00000000e+00    
           9.36936936e-04     3.37115889e-05     0.00000000e+00    
           9.38938407e-04     3.23668428e-05     0.00000000e+00    
           9.41141741e-04     3.04993409e-05     0.00000000e+00    
           9.44469939e-04     2.81033863e-05     0.00000000e+00    
           9.49305017e-04     2.60279630e-05     0.00000000e+00    
           9.53777984e-04     2.45500760e-05     0.00000000e+00    
           9.57779237e-04     2.35442094e-05     0.00000000e+00    
           5.63508947e-04    -1.68881597e-05     0.00000000e+00    
           5.70105680e-04    -1.43441812e-05     0.00000000e+00    
           5.74925507e-04    -1.01445266e-05     0.00000000e+00    
           5.77148749e-04    -4.69882116e-06     0.00000000e+00    
           5.78192063e-04     1.99240617e-06     0.00000000e+00    
           5.77573257e-04     8.91771379e-06     0.00000000e+00    
           5.74110192e-04     1.52591092e-05     0.00000000e+00    
           5.68044779e-04     2.14187712e-05     0.00000000e+00    
           5.60405897e-04     2.56692183e-05     0.00000000e+00    
           5.52323821e-04     2.85157948e-05     0.00000000e+00    
           5.43475151e-04     3.09213719e-05     0.00000000e+00    
           5.26415533e-04     3.06550610e-05     0.00000000e+00    
           5.19698195e-04     2.78135176e-05     0.00000000e+00    
           5.14660496e-04     2.36358283e-05     0.00000000e+00    
           5.11631835e-04     1.80412553e-05     0.00000000e+00    
           5.11110935e-04     1.13279557e-05     0.00000000e+00    
           5.13070554e-04     4.23976735e-06     0.00000000e+00    
           5.17083681e-04    -2.18509285e-06     0.00000000e+00    
           5.22983377e-04    -7.77768855e-06     0.00000000e+00    
           5.30361256e-04    -1.19981178e-05     0.00000000e+00    
           5.38332679e-04    -1.53005549e-05     0.00000000e+00    
           5.46826283e-04    -1.72942582e-05     0.00000000e+00    
           9.50280664e-05     3.09376337e-05     0.00000000e+00    
           9.34476120e-05     2.45609972e-05     0.00000000e+00    
           9.37700243e-05     1.77271413e-05     0.00000000e+00    
           9.58992678e-05     1.08261565e-05     0.00000000e+00    
           9.96248564e-05     3.92095353e-06     0.00000000e+00    
           1.05273743e-04    -3.08668268e-06     0.00000000e+00    
           1.13211645e-04    -9.35185835e-06     0.00000000e+00    
           1.22497891e-04    -1.44020842e-05     0.00000000e+00    
           1.32159272e-04    -1.79558483e-05     0.00000000e+00    
           1.49582746e-04    -1.78727023e-05     0.00000000e+00    
           1.56167822e-04    -1.50999686e-05     0.00000000e+00    
           1.60900818e-04    -1.07367568e-05     0.00000000e+00    
           1.64295634e-04    -4.87371108e-06     0.00000000e+00    
           1.66003752e-04     2.28251520e-06     0.00000000e+00    
           1.65738427e-04     1.04045230e-05     0.00000000e+00    
           1.62842276e-04     1.87434925e-05     0.00000000e+00    
           1.57620627e-04     2.66933857e-05     0.00000000e+00    
           1.50326581e-04     3.34045071e-05     0.00000000e+00    
           9.81984311e-04     4.18233794e-05     0.00000000e+00    
           9.72054549e-04     4.29620304e-05     0.00000000e+00    
           9.62741207e-04     4.26567312e-05     0.00000000e+00    
           9.54895047e-04     3.99812670e-05     0.00000000e+00    
           2.82239169e-04    -7.97381199e-06     0.00000000e+00    
           2.87821429e-04    -5.41535792e-06     0.00000000e+00    
           2.91521515e-04    -1.59378260e-06     0.00000000e+00    
           2.92844197e-04     3.46305706e-06     0.00000000e+00    
           2.92177458e-04     8.85169629e-06     0.00000000e+00    
           2.90002907e-04     1.40537531e-05     0.00000000e+00    
           2.86374008e-04     1.91439831e-05     0.00000000e+00    
           2.81260698e-04     2.49042478e-05     0.00000000e+00    
           2.74279242e-04     3.08665112e-05     0.00000000e+00    
           2.66794668e-04     3.55174379e-05     0.00000000e+00    
           2.59497028e-04     3.85743442e-05     0.00000000e+00    
           2.46655749e-04     3.83409933e-05     0.00000000e+00    
           2.41393500e-04     3.59190599e-05     0.00000000e+00    
           2.37293556e-04     3.21891894e-05     0.00000000e+00    
           2.34542633e-04     2.72060843e-05     0.00000000e+00    
           2.33364626e-04     2.10428589e-05     0.00000000e+00    
           2.34338528e-04     1.41065630e-05     0.00000000e+00    
           2.37732660e-04     6.90515662e-06     0.00000000e+00    
           2.42925365e-04     8.73238946e-07     0.00000000e+00    
           2.49782635e-04    -3.75651052e-06     0.00000000e+00    