<?xml version="1.0"?>
<VTKFile type="UnstructuredGrid" version="0.1">
  <UnstructuredGrid>
    <Piece NumberOfPoints="1034" NumberOfCells="1614">
      <Points>
        <DataArray type="Float32" NumberOfComponents="3">
           5.21582007e-01     5.11657000e-01     0.00000000e+00    
           5.07319987e-01     5.11657000e-01     0.00000000e+00    
           4.65243995e-01     5.17907977e-01     0.00000000e+00    
           4.65243995e-01     5.04921973e-01     0.00000000e+00    
           4.75246996e-01     5.11415005e-01     0.00000000e+00    
           5.33852994e-01     5.04921973e-01     0.00000000e+00    
           5.33852994e-01     5.17907977e-01     0.00000000e+00    
           4.83779997e-01     5.34618974e-01     0.00000000e+00    
           4.68984991e-01     5.34618974e-01     0.00000000e+00    
           4.76381987e-01     5.23841977e-01     0.00000000e+00    
           4.68984991e-01     4.66010004e-01     0.00000000e+00    
           4.83779997e-01     4.66010004e-01     0.00000000e+00    
           4.99920011e-01     5.34618974e-01     0.00000000e+00    
           4.89203990e-01     5.34618974e-01     0.00000000e+00    
           4.94562000e-01     5.22280991e-01     0.00000000e+00    
           4.89203990e-01     4.66010004e-01     0.00000000e+00    
           4.99920011e-01     4.66010004e-01     0.00000000e+00    
           5.32517016e-01     4.74112004e-01     0.00000000e+00    
           5.17961025e-01     4.74112004e-01     0.00000000e+00    
           5.33852994e-01     5.19801974e-01     0.00000000e+00    
           5.33852994e-01     5.29603004e-01     0.00000000e+00    
           5.19536972e-01     5.24702013e-01     0.00000000e+00    
           4.65243995e-01     5.29603004e-01     0.00000000e+00    
           4.65243995e-01     5.19801974e-01     0.00000000e+00    
           4.92487997e-01     5.17117977e-01     0.00000000e+00    
           4.76904988e-01     5.17117977e-01     0.00000000e+00    
           5.17996013e-01     5.27033985e-01     0.00000000e+00    
           5.04473984e-01     5.27033985e-01     0.00000000e+00    
           5.08446991e-01     4.83435005e-01     0.00000000e+00    
           4.94414002e-01     4.83435005e-01     0.00000000e+00    
           4.65243995e-01     4.83101994e-01     0.00000000e+00    
           4.65243995e-01     4.74415004e-01     0.00000000e+00    
           4.78336990e-01     4.78758007e-01     0.00000000e+00    
           5.33852994e-01     4.74415004e-01     0.00000000e+00    
           5.33852994e-01     4.83101994e-01     0.00000000e+00    
           4.80668008e-01     4.95810986e-01     0.00000000e+00    
           4.66084987e-01     4.95810986e-01     0.00000000e+00    
           4.93930012e-01     4.79214013e-01     0.00000000e+00    
           4.78967011e-01     4.79214013e-01     0.00000000e+00    
           5.09284973e-01     4.97658014e-01     0.00000000e+00    
           4.95503992e-01     4.97658014e-01     0.00000000e+00    
           5.33011973e-01     5.01751006e-01     0.00000000e+00    
           5.17829001e-01     5.01751006e-01     0.00000000e+00    
           4.95451003e-01     5.00564992e-01     0.00000000e+00    
           4.80922014e-01     5.00564992e-01     0.00000000e+00    
           5.25367022e-01     4.88312006e-01     0.00000000e+00    
           5.09521008e-01     4.88312006e-01     0.00000000e+00    
           4.65243995e-01     5.34618974e-01     0.00000000e+00    
           4.65243995e-01     4.66010004e-01     0.00000000e+00    
           5.33852994e-01     4.66010004e-01     0.00000000e+00    
           5.33852994e-01     5.34618974e-01     0.00000000e+00    
           5.21338999e-01     5.13502657e-01     0.00000000e+00    
           5.20626605e-01     5.15222490e-01     0.00000000e+00    
           5.19493401e-01     5.16699374e-01     0.00000000e+00    
           5.18016517e-01     5.17832637e-01     0.00000000e+00    
           5.16296625e-01     5.18545032e-01     0.00000000e+00    
           5.14451027e-01     5.18787980e-01     0.00000000e+00    
           5.12605369e-01     5.18545032e-01     0.00000000e+00    
           5.10885477e-01     5.17832637e-01     0.00000000e+00    
           5.09408593e-01     5.16699374e-01     0.00000000e+00    
           5.08275390e-01     5.15222490e-01     0.00000000e+00    
           5.07562995e-01     5.13502657e-01     0.00000000e+00    
           5.07562995e-01     5.09811342e-01     0.00000000e+00    
           5.08275390e-01     5.08091509e-01     0.00000000e+00    
           5.09408593e-01     5.06614625e-01     0.00000000e+00    
           5.10885477e-01     5.05481362e-01     0.00000000e+00    
           5.12605369e-01     5.04768968e-01     0.00000000e+00    
           5.14451027e-01     5.04526019e-01     0.00000000e+00    
           5.16296625e-01     5.04768968e-01     0.00000000e+00    
           5.18016517e-01     5.05481362e-01     0.00000000e+00    
           5.19493401e-01     5.06614625e-01     0.00000000e+00    
           5.20626605e-01     5.08091509e-01     0.00000000e+00    
           5.21338999e-01     5.09811342e-01     0.00000000e+00    
           4.66931671e-01     5.04409373e-01     0.00000000e+00    
           4.68693614e-01     5.04328012e-01     0.00000000e+00    
           4.70421344e-01     5.04682958e-01     0.00000000e+00    
           4.72008497e-01     5.05452335e-01     0.00000000e+00    
           4.73357379e-01     5.06588817e-01     0.00000000e+00    
           4.74384934e-01     5.08022368e-01     0.00000000e+00    
           4.75027919e-01     5.09664834e-01     0.00000000e+00    
           4.75028187e-01     5.13165236e-01     0.00000000e+00    
           4.74385172e-01     5.14807761e-01     0.00000000e+00    
           4.73357558e-01     5.16241372e-01     0.00000000e+00    
           4.72008646e-01     5.17377913e-01     0.00000000e+00    
           4.70421433e-01     5.18147290e-01     0.00000000e+00    
           4.68693614e-01     5.18502235e-01     0.00000000e+00    
           4.66931641e-01     5.18420875e-01     0.00000000e+00    
           5.32303810e-01     5.16964078e-01     0.00000000e+00    
           5.31043947e-01     5.15658796e-01     0.00000000e+00    
           5.30155540e-01     5.14077127e-01     0.00000000e+00    
           5.29696345e-01     5.12322068e-01     0.00000000e+00    
           5.29696345e-01     5.10507941e-01     0.00000000e+00    
           5.30155540e-01     5.08752882e-01     0.00000000e+00    
           5.31043947e-01     5.07171214e-01     0.00000000e+00    
           5.32303810e-01     5.05865932e-01     0.00000000e+00    
           4.68517244e-01     5.32760799e-01     0.00000000e+00    
           4.68509018e-01     5.30844629e-01     0.00000000e+00    
           4.68960851e-01     5.28982460e-01     0.00000000e+00    
           4.69846308e-01     5.27283132e-01     0.00000000e+00    
           4.71113682e-01     5.25845945e-01     0.00000000e+00    
           4.72688884e-01     5.24754822e-01     0.00000000e+00    
           4.74479854e-01     5.24073541e-01     0.00000000e+00    
           4.78284091e-01     5.24073601e-01     0.00000000e+00    
           4.80075032e-01     5.24754822e-01     0.00000000e+00    
           4.81650203e-01     5.25845885e-01     0.00000000e+00    
           4.82917547e-01     5.27283013e-01     0.00000000e+00    
           4.83803004e-01     5.28982282e-01     0.00000000e+00    
           4.84254897e-01     5.30844331e-01     0.00000000e+00    
           4.84246761e-01     5.32760441e-01     0.00000000e+00    
           4.82887864e-01     4.67691004e-01     0.00000000e+00    
           4.81620818e-01     4.69110936e-01     0.00000000e+00    
           4.80051905e-01     4.70188022e-01     0.00000000e+00    
           4.78271484e-01     4.70860153e-01     0.00000000e+00    
           4.76382166e-01     4.71088618e-01     0.00000000e+00    
           4.74492878e-01     4.70860243e-01     0.00000000e+00    
           4.72712427e-01     4.70188200e-01     0.00000000e+00    
           4.71143454e-01     4.69111174e-01     0.00000000e+00    
           4.69876349e-01     4.67691302e-01     0.00000000e+00    
           4.88103986e-01     5.33086061e-01     0.00000000e+00    
           4.87431526e-01     5.31323195e-01     0.00000000e+00    
           4.87231195e-01     5.29447019e-01     0.00000000e+00    
           4.87516224e-01     5.27581930e-01     0.00000000e+00    
           4.88267750e-01     5.25851250e-01     0.00000000e+00    
           4.89436030e-01     5.24369657e-01     0.00000000e+00    
           4.90943670e-01     5.23235261e-01     0.00000000e+00    
           4.92690891e-01     5.22523046e-01     0.00000000e+00    
           4.96432930e-01     5.22523701e-01     0.00000000e+00    
           4.98180002e-01     5.23235798e-01     0.00000000e+00    
           4.99687493e-01     5.24370134e-01     0.00000000e+00    
           5.00855684e-01     5.25851607e-01     0.00000000e+00    
           5.01607120e-01     5.27582109e-01     0.00000000e+00    
           5.01892149e-01     5.29447079e-01     0.00000000e+00    
           5.01691818e-01     5.31323016e-01     0.00000000e+00    
           5.01019418e-01     5.33085763e-01     0.00000000e+00    
           4.98371124e-01     4.67269689e-01     0.00000000e+00    
           4.96539861e-01     4.68064904e-01     0.00000000e+00    
           4.94562000e-01     4.68336672e-01     0.00000000e+00    
           4.92584139e-01     4.68064904e-01     0.00000000e+00    
           4.90752876e-01     4.67269689e-01     0.00000000e+00    
           5.32269001e-01     4.75995690e-01     0.00000000e+00    
           5.31541944e-01     4.77750987e-01     0.00000000e+00    
           5.30385315e-01     4.79258329e-01     0.00000000e+00    
           5.28877974e-01     4.80414927e-01     0.00000000e+00    
[...]
      <PointData>
        <DataArray type="Float32" Name="Displacement" NumberOfComponents="3">
           1.62831871e-04     3.85755811e-06     0.00000000e+00    
           1.58453928e-04     3.99745704e-06     0.00000000e+00    
           4.50396510e-05    -1.94512765e-07     0.00000000e+00    
           3.46331399e-05    -1.60625848e-06     0.00000000e+00    
           4.47785460e-05    -4.57367196e-06     0.00000000e+00    
           1.84633143e-04    -1.60625848e-06     0.00000000e+00    
           1.95039654e-04    -1.94512765e-07     0.00000000e+00    
           9.32594485e-05    -6.54255291e-06     0.00000000e+00    
           8.84055771e-05     3.22988444e-06     0.00000000e+00    
           8.20048808e-05    -1.78344919e-06     0.00000000e+00    
           1.34055790e-05     3.22988444e-06     0.00000000e+00    
           1.82594467e-05    -6.54255291e-06     0.00000000e+00    
           1.24545011e-04    -1.17046202e-05     0.00000000e+00    
           1.20853641e-04    -5.48462913e-06     0.00000000e+00    
           1.12856309e-04    -9.25420045e-06     0.00000000e+00    
           4.58536379e-05    -5.48462913e-06     0.00000000e+00    
           4.95450149e-05    -1.17046202e-05     0.00000000e+00    
           1.51630375e-04     6.92362801e-06     0.00000000e+00    
           1.44674297e-04     1.13917540e-05     0.00000000e+00    
           1.90980907e-04    -3.17206101e-08     0.00000000e+00    
           2.01429604e-04     8.24186230e-08     0.00000000e+00    
           1.89347498e-04     1.12827802e-05     0.00000000e+00    
           5.14296080e-05     8.24186230e-08     0.00000000e+00    
           4.09809036e-05    -3.17206101e-08     0.00000000e+00    
           8.77023995e-05    -8.72090186e-06     0.00000000e+00    
           8.15522726e-05     2.20197444e-06     0.00000000e+00    
           1.68022118e-04     6.25102075e-06     0.00000000e+00    
           1.60097174e-04     3.85478597e-06     0.00000000e+00    
           9.51181719e-05    -1.56063618e-06     0.00000000e+00    
           8.56718834e-05     1.63175514e-06     0.00000000e+00    
           2.75311322e-05     6.95517247e-06     0.00000000e+00    
           1.75713212e-05     6.54212454e-06     0.00000000e+00    
           3.15105135e-05    -3.20736171e-06     0.00000000e+00    
           1.67571328e-04     6.54212454e-06     0.00000000e+00    
           1.77531139e-04     6.95517247e-06     0.00000000e+00    
           5.33063903e-05    -2.60080299e-07     0.00000000e+00    
           4.56393827e-05     5.06669221e-06     0.00000000e+00    
           5.78952240e-05    -5.75133345e-06     0.00000000e+00    
           4.67080281e-05     1.72472426e-06     0.00000000e+00    
           1.03748971e-04     3.82203552e-07     0.00000000e+00    
           9.61428377e-05     2.05122092e-06     0.00000000e+00    
           1.69059829e-04    -4.75252000e-06     0.00000000e+00    
           1.63105971e-04     8.83469511e-06     0.00000000e+00    
           8.50027500e-05    -3.44200589e-06     0.00000000e+00    
           7.54866414e-05    -2.63663128e-06     0.00000000e+00    
           1.36051327e-04     4.16217108e-06     0.00000000e+00    
           1.28504209e-04     1.02052636e-05     0.00000000e+00    
           7.50000036e-05     0.00000000e+00     0.00000000e+00    
           0.00000000e+00     0.00000000e+00     0.00000000e+00    
           1.50000007e-04     0.00000000e+00     0.00000000e+00    
           2.24999996e-04     0.00000000e+00     0.00000000e+00    
           1.62966782e-04     3.87824548e-06     0.00000000e+00    
           1.63195757e-04     4.01466923e-06     0.00000000e+00    
           1.63307661e-04     4.14277520e-06     0.00000000e+00    
           1.63179735e-04     4.16121884e-06     0.00000000e+00    
           1.62833603e-04     4.04363800e-06     0.00000000e+00    
           1.62331489e-04     3.85202111e-06     0.00000000e+00    
           1.61894277e-04     3.79607059e-06     0.00000000e+00    
           1.61335571e-04     3.88677336e-06     0.00000000e+00    
           1.60555457e-04     4.03269860e-06     0.00000000e+00    
           1.59802876e-04     4.11387191e-06     0.00000000e+00    
           1.59095915e-04     4.09571567e-06     0.00000000e+00    
           1.57896779e-04     3.77866422e-06     0.00000000e+00    
           1.57476738e-04     3.48838489e-06     0.00000000e+00    
           1.57312694e-04     3.21381890e-06     0.00000000e+00    
           1.57494447e-04     3.06359289e-06     0.00000000e+00    
           1.58183553e-04     3.01120258e-06     0.00000000e+00    
           1.59304938e-04     3.13372198e-06     0.00000000e+00    
           1.60517651e-04     3.40474867e-06     0.00000000e+00    
           1.61892865e-04     3.76990511e-06     0.00000000e+00    
           1.63383287e-04     3.93454229e-06     0.00000000e+00    
           1.63428966e-04     3.97614622e-06     0.00000000e+00    
           1.62907498e-04     3.90026980e-06     0.00000000e+00    
           3.58233265e-05    -1.85671854e-06     0.00000000e+00    
           3.69467089e-05    -1.93052279e-06     0.00000000e+00    
           3.78573095e-05    -2.27647433e-06     0.00000000e+00    
           3.89161942e-05    -2.86561453e-06     0.00000000e+00    
           4.00774734e-05    -3.60126342e-06     0.00000000e+00    
           4.15249233e-05    -4.19935077e-06     0.00000000e+00    
           4.30853179e-05    -4.54372412e-06     0.00000000e+00    
           4.62810385e-05    -4.42912778e-06     0.00000000e+00    
           4.71833591e-05    -4.18155014e-06     0.00000000e+00    
           4.75099841e-05    -3.80412393e-06     0.00000000e+00    
           4.74418375e-05    -3.23096401e-06     0.00000000e+00    
           4.72134598e-05    -2.47958428e-06     0.00000000e+00    
           4.67016980e-05    -1.64872586e-06     0.00000000e+00    
           4.59550065e-05    -9.42832116e-07     0.00000000e+00    
           1.94115390e-04     6.50991581e-07     0.00000000e+00    
           1.93114276e-04     1.34117920e-06     0.00000000e+00    
           1.91752959e-04     1.88981755e-06     0.00000000e+00    
           1.90054139e-04     2.10514804e-06     0.00000000e+00    
           1.88035876e-04     1.90977971e-06     0.00000000e+00    
           1.85775134e-04     1.09080770e-06     0.00000000e+00    
           1.83302778e-04    -4.66031679e-07     0.00000000e+00    
           1.83595199e-04    -1.38164489e-06     0.00000000e+00    
           8.62202724e-05     3.33058006e-06     0.00000000e+00    
           8.41097717e-05     3.05820276e-06     0.00000000e+00    
           8.23660885e-05     2.61221612e-06     0.00000000e+00    
           8.13225197e-05     2.00433078e-06     0.00000000e+00    
           8.09387057e-05     1.15977821e-06     0.00000000e+00    
           8.09921185e-05     1.53558048e-07     0.00000000e+00    
           8.13877341e-05    -8.90580054e-07     0.00000000e+00    
           8.29197379e-05    -2.60703837e-06     0.00000000e+00    
           8.39625500e-05    -3.55890143e-06     0.00000000e+00    
           8.53008823e-05    -4.64587720e-06     0.00000000e+00    
           8.69962896e-05    -5.67281586e-06     0.00000000e+00    
           8.90213996e-05    -6.48554851e-06     0.00000000e+00    
           9.07846770e-05    -6.92732283e-06     0.00000000e+00    
           9.21864776e-05    -6.94858454e-06     0.00000000e+00    
           1.92120679e-05    -5.80706956e-06     0.00000000e+00    
           2.00229770e-05    -4.80058361e-06     0.00000000e+00    
           2.05019824e-05    -3.70362227e-06     0.00000000e+00    
           2.05088400e-05    -2.61252308e-06     0.00000000e+00    
           2.00890554e-05    -1.63386380e-06     0.00000000e+00    
           1.94065778e-05    -6.35508911e-07     0.00000000e+00    
           1.84433666e-05     5.99058467e-07     0.00000000e+00    
           1.71144839e-05     1.73564001e-06     0.00000000e+00    
           1.53529618e-05     2.67247083e-06     0.00000000e+00    
           1.19060671e-04    -4.70440409e-06     0.00000000e+00    
           1.17254829e-04    -4.18792615e-06     0.00000000e+00    
           1.15656840e-04    -3.99635974e-06     0.00000000e+00    
           1.14295784e-04    -4.17721958e-06     0.00000000e+00    
           1.12727459e-04    -5.05690605e-06     0.00000000e+00    
           1.11454516e-04    -6.27699364e-06     0.00000000e+00    
           1.11129353e-04    -7.39262941e-06     0.00000000e+00    
           1.11696929e-04    -8.33330523e-06     0.00000000e+00    
           1.14295362e-04    -1.01818850e-05     0.00000000e+00    
           1.15980416e-04    -1.09917810e-05     0.00000000e+00    
           1.17924290e-04    -1.16329338e-05     0.00000000e+00    
           1.19935619e-04    -1.21261955e-05     0.00000000e+00    
           1.21685785e-04    -1.25149818e-05     0.00000000e+00    
           1.22922953e-04    -1.26864488e-05     0.00000000e+00    
           1.23619102e-04    -1.26883688e-05     0.00000000e+00    
           1.24111146e-04    -1.22838492e-05     0.00000000e+00    
           4.98086956e-05    -1.08785634e-05     0.00000000e+00    
           4.98121735e-05    -9.88722604e-06     0.00000000e+00    
           4.94722990e-05    -8.77905677e-06     0.00000000e+00    
           4.86960998e-05    -7.63181379e-06     0.00000000e+00    
           4.75156994e-05    -6.51434902e-06     0.00000000e+00    
           1.53353962e-04     7.50044819e-06     0.00000000e+00    
           1.53482193e-04     8.02110480e-06     0.00000000e+00    
           1.52595443e-04     8.22656420e-06     0.00000000e+00    
           1.51455140e-04     8.61647004e-06     0.00000000e+00    
           1.50306412e-04     9.01373642e-06     0.00000000e+00    
           1.49224405e-04     9.39047277e-06     0.00000000e+00    
           1.47918749e-04     9.59170484e-06     0.00000000e+00    
           1.47091763e-04     9.99605891e-06     0.00000000e+00    
           1.46731807e-04     1.03320654e-05     0.00000000e+00    
           1.46219129e-04     1.07638234e-05     0.00000000e+00    
           1.45496902e-04     1.11803529e-05     0.00000000e+00    
           1.43906524e-04     1.14115383e-05     0.00000000e+00    
           1.43217374e-04     1.12474281e-05     0.00000000e+00    
           1.42673453e-04     1.09551647e-05     0.00000000e+00    
           1.42377088e-04     1.05496001e-05     0.00000000e+00    
           1.42424862e-04     1.01105343e-05     0.00000000e+00    
           1.42711913e-04     9.54340067e-06     0.00000000e+00    
           1.43314028e-04     8.76080321e-06     0.00000000e+00    
           1.44403442e-04     7.88414036e-06     0.00000000e+00    
           1.45741229e-04     7.14333601e-06     0.00000000e+00    
           1.47371480e-04     6.65604921e-06     0.00000000e+00    
           1.49301937e-04     6.55261829e-06     0.00000000e+00    
           2.02031981e-04     1.06461277e-06     0.00000000e+00    
           2.02248528e-04     2.27993769e-06     0.00000000e+00    
           2.02164942e-04     3.73466287e-06     0.00000000e+00    
           2.01574934e-04     5.30905072e-06     0.00000000e+00    
           2.00331066e-04     7.05149250e-06     0.00000000e+00    
           1.98471724e-04     8.64771391e-06     0.00000000e+00    
           1.96106383e-04     9.89110049e-06     0.00000000e+00    
           1.93511718e-04     1.07908245e-05     0.00000000e+00    
           1.91033381e-04     1.12778789e-05     0.00000000e+00    
           1.88275779e-04     1.08682098e-05     0.00000000e+00    
           1.87280748e-04     1.00593061e-05     0.00000000e+00    
           1.86387406e-04     9.07230515e-06     0.00000000e+00    
           1.85874262e-04     7.95521373e-06     0.00000000e+00    
           1.85802244e-04     6.69149131e-06     0.00000000e+00    
           1.86251593e-04     5.27034081e-06     0.00000000e+00    
           1.87015612e-04     3.75149125e-06     0.00000000e+00    
           1.88144491e-04     2.30586079e-06     0.00000000e+00    
           1.89442493e-04     9.89966907e-07     0.00000000e+00    
           4.27399573e-05    -7.54794087e-07     0.00000000e+00    
           4.47746424e-05    -1.18074172e-06     0.00000000e+00    
           4.69041224e-05    -1.22380379e-06     0.00000000e+00    
           4.88721162e-05    -9.64561423e-07     0.00000000e+00    
           5.04302297e-05    -5.12503846e-07     0.00000000e+00    
           8.96501588e-05    -8.50609740e-06     0.00000000e+00    
           9.16228673e-05    -7.73020292e-06     0.00000000e+00    
           9.34558266e-05    -6.48393552e-06     0.00000000e+00    
           9.43786072e-05    -5.08954236e-06     0.00000000e+00    
           9.42846600e-05    -3.96277164e-06     0.00000000e+00    
           9.33585761e-05    -2.87976695e-06     0.00000000e+00    
           9.22191321e-05    -2.07455514e-06     0.00000000e+00    
           9.10987874e-05    -1.20335892e-06     0.00000000e+00    
           8.97609425e-05    -2.08322376e-07     0.00000000e+00    
           8.81780361e-05     8.76074296e-07     0.00000000e+00    
           8.61353328e-05     1.68955671e-06     0.00000000e+00    
           8.38641863e-05     2.15527757e-06     0.00000000e+00    
           7.94952357e-05     1.91732215e-06     0.00000000e+00    
           7.81756098e-05     1.46731111e-06     0.00000000e+00    
           7.75818698e-05     9.32529645e-07     0.00000000e+00    
           7.74509899e-05     7.42289714e-08     0.00000000e+00    
           7.75942899e-05    -9.40131088e-07     0.00000000e+00    
           7.80105038e-05    -2.01289640e-06     0.00000000e+00    
           7.85148586e-05    -3.16409319e-06     0.00000000e+00    
           7.92706705e-05    -4.38165625e-06     0.00000000e+00    
           8.04581141e-05    -5.66681138e-06     0.00000000e+00    
           8.19608540e-05    -6.88431192e-06     0.00000000e+00    
           8.37686021e-05    -7.83651194e-06     0.00000000e+00    
           8.57157720e-05    -8.47586216e-06     0.00000000e+00    
           1.67416467e-04     6.27377813e-06     0.00000000e+00    
           1.66663303e-04     6.28762928e-06     0.00000000e+00    
           1.65975274e-04     6.15583167e-06     0.00000000e+00    
           1.65292746e-04     5.91124626e-06     0.00000000e+00    
           1.64429308e-04     5.56453779e-06     0.00000000e+00    
           1.63507953e-04     5.17322542e-06     0.00000000e+00    
           1.62496872e-04     4.76637160e-06     0.00000000e+00    
           1.61487813e-04     4.35067068e-06     0.00000000e+00    
           1.60530501e-04     4.01751413e-06     0.00000000e+00    
           1.59956166e-04     3.82920689e-06     0.00000000e+00    
           1.60859214e-04     4.11093697e-06     0.00000000e+00    
           1.61748947e-04     4.34331423e-06     0.00000000e+00    
           1.62610610e-04     4.69759289e-06     0.00000000e+00    
           1.63374294e-04     5.14666499e-06     0.00000000e+00    
           1.64083714e-04     5.62137620e-06     0.00000000e+00    
           1.64597281e-04     5.91085336e-06     0.00000000e+00    
           1.65224861e-04     5.99455279e-06     0.00000000e+00    
           1.66187703e-04     6.05210516e-06     0.00000000e+00    
           1.67079474e-04     6.15057843e-06     0.00000000e+00    
           1.67891150e-04     6.25975872e-06     0.00000000e+00    
           9.65418585e-05    -1.17646266e-06     0.00000000e+00    
           9.69306930e-05    -1.19340700e-06     0.00000000e+00    
           9.65508007e-05    -1.08447125e-06     0.00000000e+00    
           9.59019308e-05    -9.36158585e-07     0.00000000e+00    
           9.54967836e-05    -5.19333184e-07     0.00000000e+00    
           9.51671973e-05     1.29490401e-08     0.00000000e+00    
           9.43733903e-05     4.03002304e-07     0.00000000e+00    
           9.32849798e-05     9.20195703e-07     0.00000000e+00    
           9.18509395e-05     1.38648556e-06     0.00000000e+00    
           9.01533058e-05     1.66279938e-06     0.00000000e+00    
           8.80104417e-05     1.83477675e-06     0.00000000e+00    
           8.39953864e-05     1.32917080e-06     0.00000000e+00    
           8.37444750e-05     1.20331060e-06     0.00000000e+00    
           8.44045790e-05     1.11289251e-06     0.00000000e+00    
           8.50789074e-05     9.28987561e-07     0.00000000e+00    
           8.57619307e-05     5.51159872e-07     0.00000000e+00    
           8.64838657e-05     7.20448199e-08     0.00000000e+00    
           8.74448233e-05    -4.06902330e-07     0.00000000e+00    
           8.85742265e-05    -8.98712756e-07     0.00000000e+00    
           8.99740262e-05    -1.28690169e-06     0.00000000e+00    
           9.15381752e-05    -1.56692204e-06     0.00000000e+00    
           9.32436233e-05    -1.60698733e-06     0.00000000e+00    
           1.77793900e-05     5.86349370e-06     0.00000000e+00    
           1.79861181e-05     4.89334252e-06     0.00000000e+00    
           1.83334887e-05     3.76312119e-06     0.00000000e+00    
           1.88527611e-05     2.48351694e-06     0.00000000e+00    
           1.97713107e-05     1.09832376e-06     0.00000000e+00    
           2.11885872e-05    -3.92167806e-07     0.00000000e+00    
           2.32748080e-05    -1.69708255e-06     0.00000000e+00    
           2.59054632e-05    -2.70603618e-06     0.00000000e+00    
           2.89453073e-05    -3.23884751e-06     0.00000000e+00    
           3.24995199e-05    -2.99066301e-06     0.00000000e+00    
           3.25102119e-05    -2.67466953e-06     0.00000000e+00    
           3.26035879e-05    -2.13814087e-06     0.00000000e+00    
           3.28197311e-05    -1.32725097e-06     0.00000000e+00    
           3.29620889e-05    -2.05578814e-07     0.00000000e+00    
           3.28358328e-05     1.20441484e-06     0.00000000e+00    
           3.21922998e-05     2.74649051e-06     0.00000000e+00    
           3.10674441e-05     4.37780182e-06     0.00000000e+00    
           2.94846523e-05     5.79808238e-06     0.00000000e+00    
           1.75169567e-04     7.79628681e-06     0.00000000e+00    
           1.72327127e-04     7.99165991e-06     0.00000000e+00    
           1.69534091e-04     7.78991944e-06     0.00000000e+00    
           1.67778664e-04     7.10046561e-06     0.00000000e+00    
           5.49303877e-05     2.05365680e-09     0.00000000e+00    
           5.51586127e-05     3.11093913e-07     0.00000000e+00    
           5.44425784e-05     7.43642261e-07     0.00000000e+00    
           5.35426952e-05     1.16801402e-06     0.00000000e+00    
           5.26626027e-05     1.54584939e-06     0.00000000e+00    
           5.17334192e-05     1.90939386e-06     0.00000000e+00    
           5.08012454e-05     2.32300408e-06     0.00000000e+00    
           4.97702604e-05     2.98107602e-06     0.00000000e+00    
           4.84772281e-05     3.73174612e-06     0.00000000e+00    
           4.72076754e-05     4.32983916e-06     0.00000000e+00    
           4.62252865e-05     4.84605653e-06     0.00000000e+00    
           4.52913664e-05     5.06321430e-06     0.00000000e+00    
           4.50058033e-05     4.93594553e-06     0.00000000e+00    
           4.48511564e-05     4.66515348e-06     0.00000000e+00    
           4.47967068e-05     4.23297843e-06     0.00000000e+00    
           4.48509236e-05     3.60092872e-06     0.00000000e+00    
           4.51452288e-05     2.79122037e-06     0.00000000e+00    
           4.57360911e-05     1.87850856e-06     0.00000000e+00    
           4.66269557e-05     1.05632512e-06     0.00000000e+00    
           4.78510192e-05     3.92849358e-07     0.00000000e+00    