<?xml version="1.0"?>
<VTKFile type="UnstructuredGrid" version="0.1">
  <UnstructuredGrid>
    <Piece NumberOfPoints="1034" NumberOfCells="1614">
      <Points>
        <DataArray type="Float32" NumberOfComponents="3">
           5.21582007e-01     5.11657000e-01     0.00000000e+00    
           5.07319987e-01     5.11657000e-01     0.00000000e+00    
           4.65243995e-01     5.17907977e-01     0.00000000e+00    
           4.65243995e-01     5.04921973e-01     0.00000000e+00    
           4.75246996e-01     5.11415005e-01     0.00000000e+00    
           5.33852994e-01     5.04921973e-01     0.00000000e+00    
           5.33852994e-01     5.17907977e-01     0.00000000e+00    
           4.83779997e-01     5.34618974e-01     0.00000000e+00    
           4.68984991e-01     5.34618974e-01     0.00000000e+00    
           4.76381987e-01     5.23841977e-01     0.00000000e+00    
           4.68984991e-01     4.66010004e-01     0.00000000e+00    
           4.83779997e-01     4.66010004e-01     0.00000000e+00    
           4.99920011e-01     5.34618974e-01     0.00000000e+00    
           4.89203990e-01     5.34618974e-01     0.00000000e+00    
           4.94562000e-01     5.22280991e-01     0.00000000e+00    
           4.89203990e-01     4.66010004e-01     0.00000000e+00    
           4.99920011e-01     4.66010004e-01     0.00000000e+00    
           5.32517016e-01     4.74112004e-01     0.00000000e+00    
           5.17961025e-01     4.74112004e-01     0.00000000e+00    
           5.33852994e-01     5.19801974e-01     0.00000000e+00    
           5.33852994e-01     5.29603004e-01     0.00000000e+00    
           5.19536972e-01     5.24702013e-01     0.00000000e+00    
           4.65243995e-01     5.29603004e-01     0.00000000e+00    
           4.65243995e-01     5.19801974e-01     0.00000000e+00    
           4.92487997e-01     5.17117977e-01     0.00000000e+00    
           4.76904988e-01     5.17117977e-01     0.00000000e+00    
           5.17996013e-01     5.27033985e-01     0.00000000e+00    
           5.04473984e-01     5.27033985e-01     0.00000000e+00    
           5.08446991e-01     4.83435005e-01     0.00000000e+00    
           4.94414002e-01     4.83435005e-01     0.00000000e+00    
           4.65243995e-01     4.83101994e-01     0.00000000e+00    
           4.65243995e-01     4.74415004e-01     0.00000000e+00    
           4.78336990e-01     4.78758007e-01     0.00000000e+00    
           5.33852994e-01     4.74415004e-01     0.00000000e+00    
           5.33852994e-01     4.83101994e-01     0.00000000e+00    
           4.80668008e-01     4.95810986e-01     0.00000000e+00    
           4.66084987e-01     4.95810986e-01     0.00000000e+00    
           4.93930012e-01     4.79214013e-01     0.00000000e+00    
           4.78967011e-01     4.79214013e-01     0.00000000e+00    
           5.09284973e-01     4.97658014e-01     0.00000000e+00    
           4.95503992e-01     4.97658014e-01     0.00000000e+00    
           5.33011973e-01     5.01751006e-01     0.00000000e+00    
           5.17829001e-01     5.01751006e-01     0.00000000e+00    
           4.95451003e-01     5.00564992e-01     0.00000000e+00    
           4.80922014e-01     5.00564992e-01     0.00000000e+00    
           5.25367022e-01     4.88312006e-01     0.00000000e+00    
           5.09521008e-01     4.88312006e-01     0.00000000e+00    
           4.65243995e-01     5.34618974e-01     0.00000000e+00    
           4.65243995e-01     4.66010004e-01     0.00000000e+00    
           5.33852994e-01     4.66010004e-01     0.00000000e+00    
           5.33852994e-01     5.34618974e-01     0.00000000e+00    
           5.21338999e-01     5.13502657e-01     0.00000000e+00    
           5.20626605e-01     5.15222490e-01     0.00000000e+00    
           5.19493401e-01     5.16699374e-01     0.00000000e+00    
           5.18016517e-01     5.17832637e-01     0.00000000e+00    
           5.16296625e-01     5.18545032e-01     0.00000000e+00    
           5.14451027e-01     5.18787980e-01     0.00000000e+00    
           5.12605369e-01     5.18545032e-01     0.00000000e+00    
           5.10885477e-01     5.17832637e-01     0.00000000e+00    
           5.09408593e-01     5.16699374e-01     0.00000000e+00    
           5.08275390e-01     5.15222490e-01     0.00000000e+00    
           5.07562995e-01     5.13502657e-01     0.00000000e+00    
           5.07562995e-01     5.09811342e-01     0.00000000e+00    
           5.08275390e-01     5.08091509e-01     0.00000000e+00    
           5.09408593e-01     5.06614625e-01     0.00000000e+00    
           5.10885477e-01     5.05481362e-01     0.00000000e+00    
           5.12605369e-01     5.04768968e-01     0.00000000e+00    
           5.14451027e-01     5.04526019e-01     0.00000000e+00    
           5.16296625e-01     5.04768968e-01     0.00000000e+00    
           5.18016517e-01     5.05481362e-01     0.00000000e+00    
           5.19493401e-01     5.06614625e-01     0.00000000e+00    
           5.20626605e-01     5.08091509e-01     0.00000000e+00    
           5.21338999e-01     5.09811342e-01     0.00000000e+00    
           4.66931671e-01     5.04409373e-01     0.00000000e+00    
           4.68693614e-01     5.04328012e-01     0.00000000e+00    
           4.70421344e-01     5.04682958e-01     0.00000000e+00    
           4.72008497e-01     5.05452335e-01     0.00000000e+00    
           4.73357379e-01     5.06588817e-01     0.00000000e+00    
           4.74384934e-01     5.08022368e-01     0.00000000e+00    
           4.75027919e-01     5.09664834e-01     0.00000000e+00    
           4.75028187e-01     5.13165236e-01     0.00000000e+00    
           4.74385172e-01     5.14807761e-01     0.00000000e+00    
           4.73357558e-01     5.16241372e-01     0.00000000e+00    
           4.72008646e-01     5.17377913e-01     0.00000000e+00    
           4.70421433e-01     5.18147290e-01     0.00000000e+00    
           4.68693614e-01     5.18502235e-01     0.00000000e+00    
           4.66931641e-01     5.18420875e-01     0.00000000e+00    
           5.32303810e-01     5.16964078e-01     0.00000000e+00    
           5.31043947e-01     5.15658796e-01     0.00000000e+00    
           5.30155540e-01     5.14077127e-01     0.00000000e+00    
           5.29696345e-01     5.12322068e-01     0.00000000e+00    
           5.29696345e-01     5.10507941e-01     0.00000000e+00    
           5.30155540e-01     5.08752882e-01     0.00000000e+00    
           5.31043947e-01     5.07171214e-01     0.00000000e+00    
           5.32303810e-01     5.05865932e-01     0.00000000e+00    
           4.68517244e-01     5.32760799e-01     0.00000000e+00    
           4.68509018e-01     5.30844629e-01     0.00000000e+00    
           4.68960851e-01     5.28982460e-01     0.00000000e+00    
           4.69846308e-01     5.27283132e-01     0.00000000e+00    
           4.71113682e-01     5.25845945e-01     0.00000000e+00    
           4.72688884e-01     5.24754822e-01     0.00000000e+00    
           4.74479854e-01     5.24073541e-01     0.00000000e+00    
           4.78284091e-01     5.24073601e-01     0.00000000e+00    
           4.80075032e-01     5.24754822e-01     0.00000000e+00    
           4.81650203e-01     5.25845885e-01     0.00000000e+00    
           4.82917547e-01     5.27283013e-01     0.00000000e+00    
           4.83803004e-01     5.28982282e-01     0.00000000e+00    
           4.84254897e-01     5.30844331e-01     0.00000000e+00    
           4.84246761e-01     5.32760441e-01     0.00000000e+00    
           4.82887864e-01     4.67691004e-01     0.00000000e+00    
           4.81620818e-01     4.69110936e-01     0.00000000e+00    
           4.80051905e-01     4.70188022e-01     0.00000000e+00    
           4.78271484e-01     4.70860153e-01     0.00000000e+00    
           4.76382166e-01     4.71088618e-01     0.00000000e+00    
           4.74492878e-01     4.70860243e-01     0.00000000e+00    
           4.72712427e-01     4.70188200e-01     0.00000000e+00    
           4.71143454e-01     4.69111174e-01     0.00000000e+00    
           4.69876349e-01     4.67691302e-01     0.00000000e+00    
           4.88103986e-01     5.33086061e-01     0.00000000e+00    
           4.87431526e-01     5.31323195e-01     0.00000000e+00    
           4.87231195e-01     5.29447019e-01     0.00000000e+00    
           4.87516224e-01     5.27581930e-01     0.00000000e+00    
           4.88267750e-01     5.25851250e-01     0.00000000e+00    
           4.89436030e-01     5.24369657e-01     0.00000000e+00    
           4.90943670e-01     5.23235261e-01     0.00000000e+00    
           4.92690891e-01     5.22523046e-01     0.00000000e+00    
           4.96432930e-01     5.22523701e-01     0.00000000e+00    
           4.98180002e-01     5.23235798e-01     0.00000000e+00    
           4.99687493e-01     5.24370134e-01     0.00000000e+00    
           5.00855684e-01     5.25851607e-01     0.00000000e+00    
           5.01607120e-01     5.27582109e-01     0.00000000e+00    
           5.01892149e-01     5.29447079e-01     0.00000000e+00    
           5.01691818e-01     5.31323016e-01     0.00000000e+00    
           5.01019418e-01     5.33085763e-01     0.00000000e+00    
           4.98371124e-01     4.67269689e-01     0.00000000e+00    
           4.96539861e-01     4.68064904e-01     0.00000000e+00    
           4.94562000e-01     4.68336672e-01     0.00000000e+00    
           4.92584139e-01     4.68064904e-01     0.00000000e+00    
           4.90752876e-01     4.67269689e-01     0.00000000e+00    
           5.32269001e-01     4.75995690e-01     0.00000000e+00    
           5.31541944e-01     4.77750987e-01     0.00000000e+00    
           5.30385315e-01     4.79258329e-01     0.00000000e+00    
           5.28877974e-01     4.80414927e-01     0.00000000e+00    
[...]
      <PointData>
        <DataArray type="Float32" Name="Displacement" NumberOfComponents="3">
           8.78497434e-04     1.41458804e-05     0.00000000e+00    
           8.61953478e-04     2.50738340e-05     0.00000000e+00    
           2.63176189e-04     1.02523409e-05     0.00000000e+00    
           2.36063817e-04     7.75851095e-06     0.00000000e+00    
           2.65529728e-04    -3.02830631e-06     0.00000000e+00    
           1.03606377e-03     7.75851095e-06     0.00000000e+00    
           1.06317620e-03     1.02523409e-05     0.00000000e+00    
           4.97719273e-04    -2.29972102e-05     0.00000000e+00    
           4.78998641e-04     1.47757510e-05     0.00000000e+00    
           4.56326496e-04    -5.25044425e-06     0.00000000e+00    
           7.89986443e-05     1.47757510e-05     0.00000000e+00    
           9.77192976e-05    -2.29972102e-05     0.00000000e+00    
           6.64999534e-04    -5.30022371e-05     0.00000000e+00    
           6.50481728e-04    -2.07055709e-05     0.00000000e+00    
           6.12498785e-04    -4.00144781e-05     0.00000000e+00    
           2.50481738e-04    -2.07055709e-05     0.00000000e+00    
           2.64999544e-04    -5.30022371e-05     0.00000000e+00    
           7.68706785e-04     2.79215819e-05     0.00000000e+00    
           7.48885563e-04     5.09424681e-05     0.00000000e+00    
           1.03853201e-03     3.28847477e-06     0.00000000e+00    
           1.07879366e-03     2.82062888e-06     0.00000000e+00    
           1.03688566e-03     5.13520936e-05     0.00000000e+00    
           2.78793654e-04     2.82062888e-06     0.00000000e+00    
           2.38532040e-04     3.28847477e-06     0.00000000e+00    
           4.82930249e-04    -3.33333301e-05     0.00000000e+00    
           4.62624390e-04     1.03992579e-05     0.00000000e+00    
           9.04065091e-04     2.22750441e-05     0.00000000e+00    
           8.82011605e-04     3.39412327e-05     0.00000000e+00    
           5.21782727e-04    -1.69653558e-05     0.00000000e+00    
           5.00821334e-04     2.80091299e-05     0.00000000e+00    
           1.34098867e-04     3.63631589e-05     0.00000000e+00    
           9.28365407e-05     3.40766455e-05     0.00000000e+00    
           1.34420989e-04    -1.84172368e-05     0.00000000e+00    
           8.92836542e-04     3.40766455e-05     0.00000000e+00    
           9.34098847e-04     3.63631589e-05     0.00000000e+00    
           2.60941335e-04    -8.17328419e-06     0.00000000e+00    
           2.39046029e-04     3.66329296e-05     0.00000000e+00    
           2.79982400e-04    -4.01278521e-05     0.00000000e+00    
           2.56128551e-04     1.70273579e-05     0.00000000e+00    
           5.92014287e-04    -3.64588641e-06     0.00000000e+00    
           5.72092831e-04     3.21616644e-05     0.00000000e+00    
           9.14608128e-04    -4.76457535e-06     0.00000000e+00    
           8.94595869e-04     3.90099922e-05     0.00000000e+00    
           4.48594627e-04    -3.47089372e-05     0.00000000e+00    
           4.24571481e-04    -1.11940117e-05     0.00000000e+00    
           7.31923268e-04     3.33646203e-05     0.00000000e+00    
           7.10203662e-04     4.93855150e-05     0.00000000e+00    
           3.99999990e-04     0.00000000e+00     0.00000000e+00    
           0.00000000e+00     0.00000000e+00     0.00000000e+00    
           7.99999980e-04     0.00000000e+00     0.00000000e+00    
           1.20000006e-03     0.00000000e+00     0.00000000e+00    
           8.80652457e-04     1.47950741e-05     0.00000000e+00    
           8.82604916e-04     1.60548516e-05     0.00000000e+00    
           8.83815694e-04     1.74522120e-05     0.00000000e+00    
           8.83934961e-04     1.86632988e-05     0.00000000e+00    
           8.82997352e-04     1.94611493e-05     0.00000000e+00    
           8.81022250e-04     2.00684808e-05     0.00000000e+00    
           8.78905237e-04     2.11307997e-05     0.00000000e+00    
           8.76091886e-04     2.26959146e-05     0.00000000e+00    
           8.72329401e-04     2.42110636e-05     0.00000000e+00    
           8.68659408e-04     2.51832807e-05     0.00000000e+00    
           8.65150418e-04     2.54442784e-05     0.00000000e+00    
           8.59235821e-04     2.39935216e-05     0.00000000e+00    
           8.57241452e-04     2.24511277e-05     0.00000000e+00    
           8.56225204e-04     2.08092843e-05     0.00000000e+00    
           8.56237893e-04     1.93454543e-05     0.00000000e+00    
           8.57746694e-04     1.78417231e-05     0.00000000e+00    
           8.60987755e-04     1.64810954e-05     0.00000000e+00    
           8.64980218e-04     1.58181392e-05     0.00000000e+00    
           8.69284500e-04     1.55570615e-05     0.00000000e+00    
           8.72631732e-04     1.44237920e-05     0.00000000e+00    
           8.75254394e-04     1.40286857e-05     0.00000000e+00    
           8.76643287e-04     1.38075657e-05     0.00000000e+00    
           2.38289198e-04     5.97530789e-06     0.00000000e+00    
           2.41453192e-04     5.37885990e-06     0.00000000e+00    
           2.44462397e-04     4.19267189e-06     0.00000000e+00    
           2.48003256e-04     2.21263281e-06     0.00000000e+00    
           2.52035825e-04    -2.16418911e-07     0.00000000e+00    
           2.56574451e-04    -2.06425284e-06     0.00000000e+00    
           2.61171372e-04    -3.00938063e-06     0.00000000e+00    
           2.69043521e-04    -2.57293436e-06     0.00000000e+00    
           2.71482771e-04    -1.65088102e-06     0.00000000e+00    
           2.72796315e-04    -1.93533168e-07     0.00000000e+00    
           2.72937672e-04     1.93669985e-06     0.00000000e+00    
           2.72027333e-04     4.58629074e-06     0.00000000e+00    
           2.69832963e-04     7.29991098e-06     0.00000000e+00    
           2.66671879e-04     8.93461674e-06     0.00000000e+00    
           1.06013054e-03     1.23056052e-05     0.00000000e+00    
           1.05702400e-03     1.40470365e-05     0.00000000e+00    
           1.05311291e-03     1.53716646e-05     0.00000000e+00    
           1.04852777e-03     1.56963415e-05     0.00000000e+00    
           1.04369561e-03     1.50024071e-05     0.00000000e+00    
           1.03966636e-03     1.33707035e-05     0.00000000e+00    
           1.03721605e-03     1.12688522e-05     0.00000000e+00    
           1.03617820e-03     9.24003962e-06     0.00000000e+00    
           4.71840234e-04     1.51762897e-05     0.00000000e+00    
           4.65299672e-04     1.43767156e-05     0.00000000e+00    
           4.59788920e-04     1.29197133e-05     0.00000000e+00    
           4.55801259e-04     1.06105381e-05     0.00000000e+00    
           4.53470246e-04     7.26052258e-06     0.00000000e+00    
           4.52961773e-04     3.03998695e-06     0.00000000e+00    
           4.54110035e-04    -1.46341335e-06     0.00000000e+00    
           4.59842297e-04    -8.52491939e-06     0.00000000e+00    
           4.63710312e-04    -1.20457780e-05     0.00000000e+00    
           4.68528597e-04    -1.60895652e-05     0.00000000e+00    
           4.74456872e-04    -1.98736652e-05     0.00000000e+00    
           4.81505296e-04    -2.29541620e-05     0.00000000e+00    
           4.87811922e-04    -2.46800009e-05     0.00000000e+00    
           4.93334897e-04    -2.46852615e-05     0.00000000e+00    
           1.01340716e-04    -1.99736496e-05     0.00000000e+00    
           1.04168073e-04    -1.58808070e-05     0.00000000e+00    
           1.05703672e-04    -1.14856311e-05     0.00000000e+00    
           1.05512816e-04    -7.13599047e-06     0.00000000e+00    
           1.03698236e-04    -3.49517632e-06     0.00000000e+00    
           1.00751742e-04     2.91987079e-09     0.00000000e+00    
           9.70568799e-05     4.65261883e-06     0.00000000e+00    
           9.21265237e-05     9.05975594e-06     0.00000000e+00    
           8.57611813e-05     1.26717287e-05     0.00000000e+00    
           6.43181673e-04    -1.71691954e-05     0.00000000e+00    
           6.35654957e-04    -1.48813033e-05     0.00000000e+00    
           6.28459908e-04    -1.43633588e-05     0.00000000e+00    
           6.22069580e-04    -1.57808463e-05     0.00000000e+00    
           6.16233912e-04    -1.96655910e-05     0.00000000e+00    
           6.12204254e-04    -2.41838588e-05     0.00000000e+00    
           6.10031246e-04    -2.90847929e-05     0.00000000e+00    
           6.09733688e-04    -3.43636639e-05     0.00000000e+00    
           6.17254991e-04    -4.54059955e-05     0.00000000e+00    
           6.23205793e-04    -4.97980509e-05     0.00000000e+00    
           6.29887916e-04    -5.34763349e-05     0.00000000e+00    
           6.36720855e-04    -5.67180032e-05     0.00000000e+00    
           6.43743144e-04    -5.94469966e-05     0.00000000e+00    
           6.50633767e-04    -6.03167064e-05     0.00000000e+00    
           6.56647899e-04    -5.95625097e-05     0.00000000e+00    
           6.61460974e-04    -5.68947835e-05     0.00000000e+00    
           2.67218944e-04    -4.78584916e-05     0.00000000e+00    
           2.67690775e-04    -4.20537981e-05     0.00000000e+00    
           2.66294839e-04    -3.61074563e-05     0.00000000e+00    
           2.62733607e-04    -3.04510140e-05     0.00000000e+00    
           2.57424690e-04    -2.53074613e-05     0.00000000e+00    
           7.72650295e-04     2.92247951e-05     0.00000000e+00    
           7.75077264e-04     3.11225122e-05     0.00000000e+00    
           7.76177563e-04     3.26712434e-05     0.00000000e+00    
           7.75193796e-04     3.55692500e-05     0.00000000e+00    
           7.72801752e-04     3.84792947e-05     0.00000000e+00    
           7.69818958e-04     4.12513800e-05     0.00000000e+00    
           7.65835284e-04     4.28311068e-05     0.00000000e+00    
           7.62776297e-04     4.51865271e-05     0.00000000e+00    
           7.60228722e-04     4.70533087e-05     0.00000000e+00    
           7.56978814e-04     4.88911210e-05     0.00000000e+00    
           7.53031694e-04     5.03827614e-05     0.00000000e+00    
           7.45120051e-04     5.04892778e-05     0.00000000e+00    
           7.41893484e-04     4.91422943e-05     0.00000000e+00    
           7.39476993e-04     4.72224929e-05     0.00000000e+00    
           7.38113304e-04     4.49149702e-05     0.00000000e+00    
           7.38063827e-04     4.24491445e-05     0.00000000e+00    
           7.39127048e-04     3.95090319e-05     0.00000000e+00    
           7.41716707e-04     3.57999052e-05     0.00000000e+00    
           7.46250851e-04     3.19044921e-05     0.00000000e+00    
           7.51533720e-04     2.89686977e-05     0.00000000e+00    
           7.57310947e-04     2.73690275e-05     0.00000000e+00    
           7.63326476e-04     2.71453137e-05     0.00000000e+00    
           1.08247902e-03     7.25371956e-06     0.00000000e+00    
           1.08432327e-03     1.26700406e-05     0.00000000e+00    
           1.08447508e-03     1.89381699e-05     0.00000000e+00    
           1.08235935e-03     2.56295680e-05     0.00000000e+00    
           1.07760669e-03     3.29038012e-05     0.00000000e+00    
           1.07082748e-03     3.94117742e-05     0.00000000e+00    
           1.06259529e-03     4.45514524e-05     0.00000000e+00    
           1.05371687e-03     4.84998745e-05     0.00000000e+00    
           1.04489026e-03     5.09857091e-05     0.00000000e+00    
           1.03008165e-03     4.95819004e-05     0.00000000e+00    
           1.02460734e-03     4.58244976e-05     0.00000000e+00    
           1.02030090e-03     4.11385081e-05     0.00000000e+00    
           1.01772498e-03     3.58976649e-05     0.00000000e+00    
           1.01713906e-03     3.00652773e-05     0.00000000e+00    
           1.01909856e-03     2.37232944e-05     0.00000000e+00    
           1.02244201e-03     1.76086996e-05     0.00000000e+00    
           1.02723204e-03     1.24165881e-05     0.00000000e+00    
           1.03242684e-03     7.40737823e-06     0.00000000e+00    
           2.45263480e-04     1.95794343e-07     0.00000000e+00    
           2.52886588e-04    -1.77770096e-06     0.00000000e+00    
           2.60666275e-04    -2.36408528e-06     0.00000000e+00    
           2.67831318e-04    -1.65513109e-06     0.00000000e+00    
           2.73984624e-04     1.21914184e-07     0.00000000e+00    
           4.89615952e-04    -3.20447070e-05     0.00000000e+00    
           4.95799002e-04    -2.87874227e-05     0.00000000e+00    
           5.00552938e-04    -2.46169693e-05     0.00000000e+00    
           5.03317046e-04    -1.99292645e-05     0.00000000e+00    
           5.04167459e-04    -1.51675340e-05     0.00000000e+00    
           5.02319133e-04    -1.02245003e-05     0.00000000e+00    
           4.98691457e-04    -6.55202530e-06     0.00000000e+00    
           4.94686130e-04    -3.15680722e-06     0.00000000e+00    
           4.90024511e-04     6.26944143e-07     0.00000000e+00    
           4.84546064e-04     4.59555849e-06     0.00000000e+00    
           4.77693975e-04     7.70952465e-06     0.00000000e+00    
           4.70102357e-04     9.78686148e-06     0.00000000e+00    
           4.56034497e-04     9.68365111e-06     0.00000000e+00    
           4.50713007e-04     7.78742287e-06     0.00000000e+00    
           4.47033817e-04     5.04371019e-06     0.00000000e+00    
           4.45119251e-04     9.09483674e-07     0.00000000e+00    
           4.44812904e-04    -3.75578088e-06     0.00000000e+00    
           4.46083548e-04    -8.48641685e-06     0.00000000e+00    
           4.48066014e-04    -1.33451740e-05     0.00000000e+00    
           4.51296830e-04    -1.83489246e-05     0.00000000e+00    
           4.56086273e-04    -2.33315477e-05     0.00000000e+00    
           4.61994001e-04    -2.77939398e-05     0.00000000e+00    
           4.68780345e-04    -3.10220930e-05     0.00000000e+00    
           4.75876906e-04    -3.29401155e-05     0.00000000e+00    
           9.05702473e-04     2.29176494e-05     0.00000000e+00    
           9.06105561e-04     2.43578252e-05     0.00000000e+00    
           9.05821275e-04     2.58839937e-05     0.00000000e+00    
           9.04839661e-04     2.74814811e-05     0.00000000e+00    
           9.02618689e-04     2.89823474e-05     0.00000000e+00    
           8.99403356e-04     3.03116176e-05     0.00000000e+00    
           8.95430276e-04     3.12133780e-05     0.00000000e+00    
           8.91498290e-04     3.18636085e-05     0.00000000e+00    
           8.87658389e-04     3.25821129e-05     0.00000000e+00    
           8.84473091e-04     3.36251323e-05     0.00000000e+00    
           8.80507869e-04     3.38083591e-05     0.00000000e+00    
           8.80016363e-04     3.29387804e-05     0.00000000e+00    
           8.80530453e-04     3.19118626e-05     0.00000000e+00    
           8.81758169e-04     3.07980190e-05     0.00000000e+00    
           8.83777684e-04     2.98136983e-05     0.00000000e+00    
           8.85898946e-04     2.83135250e-05     0.00000000e+00    
           8.89036106e-04     2.62845460e-05     0.00000000e+00    
           8.93589226e-04     2.45361407e-05     0.00000000e+00    
           8.97775637e-04     2.33191331e-05     0.00000000e+00    
           9.01445048e-04     2.24957021e-05     0.00000000e+00    
           5.29046927e-04    -1.57696632e-05     0.00000000e+00    
           5.35039231e-04    -1.35055925e-05     0.00000000e+00    
           5.39287576e-04    -9.73068109e-06     0.00000000e+00    
           5.41072513e-04    -4.85006285e-06     0.00000000e+00    
           5.41873975e-04     1.19955212e-06     0.00000000e+00    
           5.41215995e-04     7.48426328e-06     0.00000000e+00    
           5.37911197e-04     1.31842698e-05     0.00000000e+00    
           5.32215810e-04     1.87472979e-05     0.00000000e+00    
           5.25038398e-04     2.25747171e-05     0.00000000e+00    
           5.17433044e-04     2.50909980e-05     0.00000000e+00    
           5.09116158e-04     2.72330108e-05     0.00000000e+00    
           4.93260741e-04     2.69998291e-05     0.00000000e+00    
           4.87153709e-04     2.44387356e-05     0.00000000e+00    
           4.82672476e-04     2.06946188e-05     0.00000000e+00    
           4.80113202e-04     1.56570186e-05     0.00000000e+00    
           4.79860813e-04     9.59303998e-06     0.00000000e+00    
           4.81834490e-04     3.18181674e-06     0.00000000e+00    
           4.85675177e-04    -2.61696459e-06     0.00000000e+00    
           4.91229643e-04    -7.67118490e-06     0.00000000e+00    
           4.98156471e-04    -1.14707336e-05     0.00000000e+00    
           5.05637494e-04    -1.44245423e-05     0.00000000e+00    
           5.13584644e-04    -1.61693570e-05     0.00000000e+00    
           8.93765391e-05     2.92158529e-05     0.00000000e+00    
           8.79924119e-05     2.31739778e-05     0.00000000e+00    
           8.83562752e-05     1.66820737e-05     0.00000000e+00    
           9.04019980e-05     1.00956631e-05     0.00000000e+00    
           9.39895035e-05     3.48414574e-06     0.00000000e+00    
           9.94445727e-05    -3.23807990e-06     0.00000000e+00    
           1.07133012e-04    -9.23853622e-06     0.00000000e+00    
           1.16168114e-04    -1.40443917e-05     0.00000000e+00    
           1.25531631e-04    -1.74402321e-05     0.00000000e+00    
           1.42215620e-04    -1.73657827e-05     0.00000000e+00    
           1.48376697e-04    -1.47353985e-05     0.00000000e+00    
           1.52728797e-04    -1.06107582e-05     0.00000000e+00    
           1.55878864e-04    -5.05180242e-06     0.00000000e+00    
           1.57476781e-04     1.74345541e-06     0.00000000e+00    
           1.57209302e-04     9.47152421e-06     0.00000000e+00    
           1.54425768e-04     1.74198776e-05     0.00000000e+00    
           1.49413419e-04     2.50288649e-05     0.00000000e+00    
           1.42409233e-04     3.14599492e-05     0.00000000e+00    
           9.24715074e-04     3.95513780e-05     0.00000000e+00    
           9.15035431e-04     4.05977626e-05     0.00000000e+00    
           9.06045083e-04     4.03096055e-05     0.00000000e+00    
           8.98552942e-04     3.77437136e-05     0.00000000e+00    
           2.67827621e-04    -7.23180892e-06     0.00000000e+00    
           2.72953621e-04    -4.87575699e-06     0.00000000e+00    
           2.76211853e-04    -1.33742708e-06     0.00000000e+00    
           2.77154351e-04     3.32507534e-06     0.00000000e+00    
           2.76325038e-04     8.27228359e-06     0.00000000e+00    
           2.74136139e-04     1.30475037e-05     0.00000000e+00    
           2.70641729e-04     1.77354541e-05     0.00000000e+00    
           2.65791139e-04     2.30854148e-05     0.00000000e+00    
           2.59189488e-04     2.86420218e-05     0.00000000e+00    
           2.52136146e-04     3.29823597e-05     0.00000000e+00    
           2.45334435e-04     3.58586512e-05     0.00000000e+00    
           2.33551240e-04     3.56882301e-05     0.00000000e+00    
           2.28726742e-04     3.34745382e-05     0.00000000e+00    
           2.24976640e-04     3.00487136e-05     0.00000000e+00    
           2.22469404e-04     2.54456099e-05     0.00000000e+00    
           2.21414011e-04     1.97268637e-05     0.00000000e+00    
           2.22363538e-04     1.32723289e-05     0.00000000e+00    
           2.25574579e-04     6.55807617e-06     0.00000000e+00    
           2.30481499e-04     9.28500810e-07     0.00000000e+00    
           2.36970925e-04    -3.38916175e-06     0.00000000e+00    