<?xml version="1.0"?>
<VTKFile type="UnstructuredGrid" version="0.1">
  <UnstructuredGrid>
    <Piece NumberOfPoints="1034" NumberOfCells="1614">
      <Points>
        <DataArray type="Float32" NumberOfComponents="3">
           5.21582007e-01     5.11657000e-01     0.00000000e+00    
           5.07319987e-01     5.11657000e-01     0.00000000e+00    
           4.65243995e-01     5.17907977e-01     0.00000000e+00    
           4.65243995e-01     5.04921973e-01     0.00000000e+00    
           4.75246996e-01     5.11415005e-01     0.00000000e+00    
           5.33852994e-01     5.04921973e-01     0.00000000e+00    
           5.33852994e-01     5.17907977e-01     0.00000000e+00    
           4.83779997e-01     5.34618974e-01     0.00000000e+00    
           4.68984991e-01     5.34618974e-01     0.00000000e+00    
           4.76381987e-01     5.23841977e-01     0.00000000e+00    
           4.68984991e-01     4.66010004e-01     0.00000000e+00    
           4.83779997e-01     4.66010004e-01     0.00000000e+00    
           4.99920011e-01     5.34618974e-01     0.00000000e+00    
           4.89203990e-01     5.34618974e-01     0.00000000e+00    
           4.94562000e-01     5.22280991e-01     0.00000000e+00    
           4.89203990e-01     4.66010004e-01     0.00000000e+00    
           4.99920011e-01     4.66010004e-01     0.00000000e+00    
           5.32517016e-01     4.74112004e-01     0.00000000e+00    
           5.17961025e-01     4.74112004e-01     0.00000000e+00    
           5.33852994e-01     5.19801974e-01     0.00000000e+00    
           5.33852994e-01     5.29603004e-01     0.00000000e+00    
           5.19536972e-01     5.24702013e-01     0.00000000e+00    
           4.65243995e-01     5.29603004e-01     0.00000000e+00    
           4.65243995e-01     5.19801974e-01     0.00000000e+00    
           4.92487997e-01     5.17117977e-01     0.00000000e+00    
           4.76904988e-01     5.17117977e-01     0.00000000e+00    
           5.17996013e-01     5.27033985e-01     0.00000000e+00    
           5.04473984e-01     5.27033985e-01     0.00000000e+00    
           5.08446991e-01     4.83435005e-01     0.00000000e+00    
           4.94414002e-01     4.83435005e-01     0.00000000e+00    
           4.65243995e-01     4.83101994e-01     0.00000000e+00    
           4.65243995e-01     4.74415004e-01     0.00000000e+00    
           4.78336990e-01     4.78758007e-01     0.00000000e+00    
           5.33852994e-01     4.74415004e-01     0.00000000e+00    
           5.33852994e-01     4.83101994e-01     0.00000000e+00    
           4.80668008e-01     4.95810986e-01     0.00000000e+00    
           4.66084987e-01     4.95810986e-01     0.00000000e+00    
           4.93930012e-01     4.79214013e-01     0.00000000e+00    
           4.78967011e-01     4.79214013e-01     0.00000000e+00    
           5.09284973e-01     4.97658014e-01     0.00000000e+00    
           4.95503992e-01     4.97658014e-01     0.00000000e+00    
           5.33011973e-01     5.01751006e-01     0.00000000e+00    
           5.17829001e-01     5.01751006e-01     0.00000000e+00    
           4.95451003e-01     5.00564992e-01     0.00000000e+00    
           4.80922014e-01     5.00564992e-01     0.00000000e+00    
           5.25367022e-01     4.88312006e-01     0.00000000e+00    
           5.09521008e-01     4.88312006e-01     0.00000000e+00    
           4.65243995e-01     5.34618974e-01     0.00000000e+00    
           4.65243995e-01     4.66010004e-01     0.00000000e+00    
           5.33852994e-01     4.66010004e-01     0.00000000e+00    
           5.33852994e-01     5.34618974e-01     0.00000000e+00    
           5.21338999e-01     5.13502657e-01     0.00000000e+00    
           5.20626605e-01     5.15222490e-01     0.00000000e+00    
           5.19493401e-01     5.16699374e-01     0.00000000e+00    
           5.18016517e-01     5.17832637e-01     0.00000000e+00    
           5.16296625e-01     5.18545032e-01     0.00000000e+00    
           5.14451027e-01     5.18787980e-01     0.00000000e+00    
           5.12605369e-01     5.18545032e-01     0.00000000e+00    
           5.10885477e-01     5.17832637e-01     0.00000000e+00    
           5.09408593e-01     5.16699374e-01     0.00000000e+00    
           5.08275390e-01     5.15222490e-01     0.00000000e+00    
           5.07562995e-01     5.13502657e-01     0.00000000e+00    
           5.07562995e-01     5.09811342e-01     0.00000000e+00    
           5.08275390e-01     5.08091509e-01     0.00000000e+00    
           5.09408593e-01     5.06614625e-01     0.00000000e+00    
           5.10885477e-01     5.05481362e-01     0.00000000e+00    
           5.12605369e-01     5.04768968e-01     0.00000000e+00    
           5.14451027e-01     5.04526019e-01     0.00000000e+00    
           5.16296625e-01     5.04768968e-01     0.00000000e+00    
           5.18016517e-01     5.05481362e-01     0.00000000e+00    
           5.19493401e-01     5.06614625e-01     0.00000000e+00    
           5.20626605e-01     5.08091509e-01     0.00000000e+00    
           5.21338999e-01     5.09811342e-01     0.00000000e+00    
           4.66931671e-01     5.04409373e-01     0.00000000e+00    
           4.68693614e-01     5.04328012e-01     0.00000000e+00    
           4.70421344e-01     5.04682958e-01     0.00000000e+00    
           4.72008497e-01     5.05452335e-01     0.00000000e+00    
           4.73357379e-01     5.06588817e-01     0.00000000e+00    
           4.74384934e-01     5.08022368e-01     0.00000000e+00    
           4.75027919e-01     5.09664834e-01     0.00000000e+00    
           4.75028187e-01     5.13165236e-01     0.00000000e+00    
           4.74385172e-01     5.14807761e-01     0.00000000e+00    
           4.73357558e-01     5.16241372e-01     0.00000000e+00    
           4.72008646e-01     5.17377913e-01     0.00000000e+00    
           4.70421433e-01     5.18147290e-01     0.00000000e+00    
           4.68693614e-01     5.18502235e-01     0.00000000e+00    
           4.66931641e-01     5.18420875e-01     0.00000000e+00    
           5.32303810e-01     5.16964078e-01     0.00000000e+00    
           5.31043947e-01     5.15658796e-01     0.00000000e+00    
           5.30155540e-01     5.14077127e-01     0.00000000e+00    
           5.29696345e-01     5.12322068e-01     0.00000000e+00    
           5.29696345e-01     5.10507941e-01     0.00000000e+00    
           5.30155540e-01     5.08752882e-01     0.00000000e+00    
           5.31043947e-01     5.07171214e-01     0.00000000e+00    
           5.32303810e-01     5.05865932e-01     0.00000000e+00    
           4.68517244e-01     5.32760799e-01     0.00000000e+00    
           4.68509018e-01     5.30844629e-01     0.00000000e+00    
           4.68960851e-01     5.28982460e-01     0.00000000e+00    
           4.69846308e-01     5.27283132e-01     0.00000000e+00    
           4.71113682e-01     5.25845945e-01     0.00000000e+00    
           4.72688884e-01     5.24754822e-01     0.00000000e+00    
           4.74479854e-01     5.24073541e-01     0.00000000e+00    
           4.78284091e-01     5.24073601e-01     0.00000000e+00    
           4.80075032e-01     5.24754822e-01     0.00000000e+00    
           4.81650203e-01     5.25845885e-01     0.00000000e+00    
           4.82917547e-01     5.27283013e-01     0.00000000e+00    
           4.83803004e-01     5.28982282e-01     0.00000000e+00    
           4.84254897e-01     5.30844331e-01     0.00000000e+00    
           4.84246761e-01     5.32760441e-01     0.00000000e+00    
           4.82887864e-01     4.67691004e-01     0.00000000e+00    
           4.81620818e-01     4.69110936e-01     0.00000000e+00    
           4.80051905e-01     4.70188022e-01     0.00000000e+00    
           4.78271484e-01     4.70860153e-01     0.00000000e+00    
           4.76382166e-01     4.71088618e-01     0.00000000e+00    
           4.74492878e-01     4.70860243e-01     0.00000000e+00    
           4.72712427e-01     4.70188200e-01     0.00000000e+00    
           4.71143454e-01     4.69111174e-01     0.00000000e+00    
           4.69876349e-01     4.67691302e-01     0.00000000e+00    
           4.88103986e-01     5.33086061e-01     0.00000000e+00    
           4.87431526e-01     5.31323195e-01     0.00000000e+00    
           4.87231195e-01     5.29447019e-01     0.00000000e+00    
           4.87516224e-01     5.27581930e-01     0.00000000e+00    
           4.88267750e-01     5.25851250e-01     0.00000000e+00    
           4.89436030e-01     5.24369657e-01     0.00000000e+00    
           4.90943670e-01     5.23235261e-01     0.00000000e+00    
           4.92690891e-01     5.22523046e-01     0.00000000e+00    
           4.96432930e-01     5.22523701e-01     0.00000000e+00    
           4.98180002e-01     5.23235798e-01     0.00000000e+00    
           4.99687493e-01     5.24370134e-01     0.00000000e+00    
           5.00855684e-01     5.25851607e-01     0.00000000e+00    
           5.01607120e-01     5.27582109e-01     0.00000000e+00    
           5.01892149e-01     5.29447079e-01     0.00000000e+00    
           5.01691818e-01     5.31323016e-01     0.00000000e+00    
           5.01019418e-01     5.33085763e-01     0.00000000e+00    
           4.98371124e-01     4.67269689e-01     0.00000000e+00    
           4.96539861e-01     4.68064904e-01     0.00000000e+00    
           4.94562000e-01     4.68336672e-01     0.00000000e+00    
           4.92584139e-01     4.68064904e-01     0.00000000e+00    
           4.90752876e-01     4.67269689e-01     0.00000000e+00    
           5.32269001e-01     4.75995690e-01     0.00000000e+00    
           5.31541944e-01     4.77750987e-01     0.00000000e+00    
           5.30385315e-01     4.79258329e-01     0.00000000e+00    
           5.28877974e-01     4.80414927e-01     0.00000000e+00    
[...]
      <PointData>
        <DataArray type="Float32" Name="Displacement" NumberOfComponents="3">
           2.80705723e-03     4.15254326e-05     0.00000000e+00    
           2.78331921e-03     8.02834620e-05     0.00000000e+00    
           8.85857211e-04     1.62837514e-05     0.00000000e+00    
           8.31362442e-04     1.40318971e-05     0.00000000e+00    
           8.77365470e-04    -2.17933029e-05     0.00000000e+00    
           3.33136250e-03     1.40318971e-05     0.00000000e+00    
           3.38585721e-03     1.62837514e-05     0.00000000e+00    
           1.54960435e-03    -9.01993408e-05     0.00000000e+00    
           1.52413116e-03     8.63264268e-06     0.00000000e+00    
           1.46037224e-03    -4.67011087e-05     0.00000000e+00    
           2.74131104e-04     8.63264268e-06     0.00000000e+00    
           2.99604377e-04    -9.01993408e-05     0.00000000e+00    
           2.14019790e-03    -1.35734939e-04     0.00000000e+00    
           2.12166784e-03    -7.31115870e-05     0.00000000e+00    
           2.04985612e-03    -1.12126996e-04     0.00000000e+00    
           8.71667813e-04    -7.31115870e-05     0.00000000e+00    
           8.90197814e-04    -1.35734939e-04     0.00000000e+00    
           2.34257150e-03     2.10055150e-05     0.00000000e+00    
           2.31816713e-03     1.17915151e-04     0.00000000e+00    
           3.34529020e-03    -1.76215724e-06     0.00000000e+00    
           3.42684775e-03    -1.77498350e-06     0.00000000e+00    
           3.36164003e-03     1.08566033e-04     0.00000000e+00    
           9.26847686e-04    -1.77498350e-06     0.00000000e+00    
           8.45290313e-04    -1.76215724e-06     0.00000000e+00    
           1.50364544e-03    -1.12085247e-04     0.00000000e+00    
           1.47827901e-03    -3.44155669e-05     0.00000000e+00    
           2.89708702e-03     4.27946870e-05     0.00000000e+00    
           2.87483470e-03     1.49064057e-04     0.00000000e+00    
           1.63976522e-03    -1.02820057e-04     0.00000000e+00    
           1.61867938e-03     6.54891192e-05     0.00000000e+00    
           4.46681312e-04     8.39151908e-05     0.00000000e+00    
           3.26826004e-04     7.97098473e-05     0.00000000e+00    
           4.09004890e-04    -9.27492511e-05     0.00000000e+00    
           2.82682595e-03     7.97098473e-05     0.00000000e+00    
           2.94668134e-03     8.39151908e-05     0.00000000e+00    
           7.74405256e-04    -1.09919521e-04     0.00000000e+00    
           7.50114094e-04     8.01397546e-05     0.00000000e+00    
           8.46653769e-04    -1.60727883e-04     0.00000000e+00    
           8.22869595e-04    -5.65957816e-06     0.00000000e+00    
           1.84968417e-03    -7.99494665e-05     0.00000000e+00    
           1.82848773e-03     7.33670240e-05     0.00000000e+00    
           2.87793763e-03    -2.46317268e-05     0.00000000e+00    
           2.85486993e-03     1.06661362e-04     0.00000000e+00    
           1.39311003e-03    -1.60829775e-04     0.00000000e+00    
           1.36905175e-03    -5.80382475e-05     0.00000000e+00    
           2.38479790e-03     7.11102839e-05     0.00000000e+00    
           2.35927431e-03     1.73328983e-04     0.00000000e+00    
           1.24999997e-03     0.00000000e+00     0.00000000e+00    
           0.00000000e+00     0.00000000e+00     0.00000000e+00    
           2.49999994e-03     0.00000000e+00     0.00000000e+00    
           3.74999992e-03     0.00000000e+00     0.00000000e+00    
           2.81260535e-03     4.30998371e-05     0.00000000e+00    
           2.81713996e-03     4.58954128e-05     0.00000000e+00    
           2.82049109e-03     4.95487839e-05     0.00000000e+00    
           2.82238773e-03     5.38759414e-05     0.00000000e+00    
           2.82244803e-03     5.84851769e-05     0.00000000e+00    
           2.81998608e-03     6.33425079e-05     0.00000000e+00    
           2.81587522e-03     6.86370113e-05     0.00000000e+00    
           2.81005749e-03     7.39530369e-05     0.00000000e+00    
           2.80266046e-03     7.79243055e-05     0.00000000e+00    
           2.79594981e-03     8.01105271e-05     0.00000000e+00    
           2.78941146e-03     8.08473269e-05     0.00000000e+00    
           2.77792243e-03     7.83052819e-05     0.00000000e+00    
           2.77349120e-03     7.54070134e-05     0.00000000e+00    
           2.77029141e-03     7.17600560e-05     0.00000000e+00    
           2.76839151e-03     6.77517528e-05     0.00000000e+00    
           2.76844064e-03     6.31540242e-05     0.00000000e+00    
           2.77145603e-03     5.75381855e-05     0.00000000e+00    
           2.77653709e-03     5.30519756e-05     0.00000000e+00    
           2.78215157e-03     4.97274414e-05     0.00000000e+00    
           2.78783240e-03     4.55701484e-05     0.00000000e+00    
           2.79415864e-03     4.25479593e-05     0.00000000e+00    
           2.80073006e-03     4.10761786e-05     0.00000000e+00    
           8.31797021e-04     8.09970516e-06     0.00000000e+00    
           8.34668812e-04     3.03858178e-06     0.00000000e+00    
           8.39417276e-04    -2.65916833e-06     0.00000000e+00    
           8.45862844e-04    -9.12964333e-06     0.00000000e+00    
           8.53579142e-04    -1.51589011e-05     0.00000000e+00    
           8.61535897e-04    -1.93566775e-05     0.00000000e+00    
           8.69612268e-04    -2.16774915e-05     0.00000000e+00    
           8.84368317e-04    -2.00916984e-05     0.00000000e+00    
           8.90297641e-04    -1.68694169e-05     0.00000000e+00    
           8.94807570e-04    -1.22846241e-05     0.00000000e+00    
           8.97807826e-04    -6.57343480e-06     0.00000000e+00    
           8.98738508e-04     5.60356241e-08     0.00000000e+00    
           8.96825630e-04     7.56010331e-06     0.00000000e+00    
           8.91985721e-04     1.28029114e-05     0.00000000e+00    
           3.37992096e-03     2.13315398e-05     0.00000000e+00    
           3.37312720e-03     2.55049163e-05     0.00000000e+00    
           3.36540421e-03     2.86606883e-05     0.00000000e+00    
           3.35745234e-03     3.00632855e-05     0.00000000e+00    
           3.34967254e-03     2.97597853e-05     0.00000000e+00    
           3.34294629e-03     2.74512568e-05     0.00000000e+00    
           3.33759910e-03     2.36610449e-05     0.00000000e+00    
           3.33375647e-03     1.90285864e-05     0.00000000e+00    
           1.50997716e-03     1.08826707e-05     0.00000000e+00    
           1.49636669e-03     9.80856294e-06     0.00000000e+00    
           1.48389628e-03     5.72281351e-06     0.00000000e+00    
           1.47319504e-03    -1.06718551e-06     0.00000000e+00    
           1.46478671e-03    -1.03653238e-05     0.00000000e+00    
           1.45959610e-03    -2.18142268e-05     0.00000000e+00    
           1.45826023e-03    -3.46872548e-05     0.00000000e+00    
           1.46629324e-03    -5.71752680e-05     0.00000000e+00    
           1.47372938e-03    -6.68414941e-05     0.00000000e+00    
           1.48332119e-03    -7.64868309e-05     0.00000000e+00    
           1.49492174e-03    -8.48514464e-05     0.00000000e+00    
           1.50859542e-03    -9.12960531e-05     0.00000000e+00    
           1.52291066e-03    -9.47502194e-05     0.00000000e+00    
           1.53687748e-03    -9.41600229e-05     0.00000000e+00    
           3.10356438e-04    -8.34629463e-05     0.00000000e+00    
           3.18801816e-04    -7.45671350e-05     0.00000000e+00    
           3.24248220e-04    -6.39165519e-05     0.00000000e+00    
           3.26159148e-04    -5.22238297e-05     0.00000000e+00    
           3.24301713e-04    -4.09968015e-05     0.00000000e+00    
           3.18811886e-04    -3.03457473e-05     0.00000000e+00    
           3.11196665e-04    -1.77405964e-05     0.00000000e+00    
           3.00638494e-04    -6.16421994e-06     0.00000000e+00    
           2.87750008e-04     2.80110999e-06     0.00000000e+00    
           2.11062166e-03    -6.67745189e-05     0.00000000e+00    
           2.09845020e-03    -6.31578368e-05     0.00000000e+00    
           2.08597211e-03    -6.25445900e-05     0.00000000e+00    
           2.07415549e-03    -6.52570743e-05     0.00000000e+00    
           2.06398731e-03    -7.09675369e-05     0.00000000e+00    
           2.05603684e-03    -7.89917467e-05     0.00000000e+00    
           2.05060421e-03    -8.86993657e-05     0.00000000e+00    
           2.04801955e-03    -9.97971656e-05     0.00000000e+00    
           2.05591577e-03    -1.23904203e-04     0.00000000e+00    
           2.06447393e-03    -1.32865607e-04     0.00000000e+00    
           2.07425258e-03    -1.39859534e-04     0.00000000e+00    
           2.08496652e-03    -1.45828439e-04     0.00000000e+00    
           2.09677522e-03    -1.49709012e-04     0.00000000e+00    
           2.10911944e-03    -1.50659544e-04     0.00000000e+00    
           2.12092325e-03    -1.48626466e-04     0.00000000e+00    
           2.13159784e-03    -1.43521407e-04     0.00000000e+00    
           8.96459213e-04    -1.25357823e-04     0.00000000e+00    
           8.99055100e-04    -1.13361129e-04     0.00000000e+00    
           8.97133024e-04    -1.00802914e-04     0.00000000e+00    
           8.90871044e-04    -8.99216611e-05     0.00000000e+00    
           8.82003107e-04    -8.10479323e-05     0.00000000e+00    
           2.35550641e-03     2.37545555e-05     0.00000000e+00    
           2.36688647e-03     2.95428545e-05     0.00000000e+00    
           2.37608701e-03     3.75881573e-05     0.00000000e+00    
           2.38221465e-03     4.85215605e-05     0.00000000e+00    
           2.38414761e-03     6.12540825e-05     0.00000000e+00    
           2.38210312e-03     7.42011034e-05     0.00000000e+00    
           2.37557385e-03     8.44959650e-05     0.00000000e+00    
           2.36783037e-03     9.55118667e-05     0.00000000e+00    
           2.35824590e-03     1.04590152e-04     0.00000000e+00    
           2.34603113e-03     1.11810601e-04     0.00000000e+00    
           2.33226665e-03     1.16527597e-04     0.00000000e+00    
           2.30496936e-03     1.15670904e-04     0.00000000e+00    
           2.29328894e-03     1.10186505e-04     0.00000000e+00    
           2.28392100e-03     1.02264894e-04     0.00000000e+00    
           2.27751327e-03     9.23702755e-05     0.00000000e+00    
           2.27457704e-03     8.12168655e-05     0.00000000e+00    
           2.27547577e-03     6.91014648e-05     0.00000000e+00    
           2.28093192e-03     5.58935863e-05     0.00000000e+00    
           2.29073083e-03     4.29432403e-05     0.00000000e+00    
           2.30221567e-03     3.29074610e-05     0.00000000e+00    
           2.31508003e-03     2.55376599e-05     0.00000000e+00    
           2.32881214e-03     2.15024884e-05     0.00000000e+00    
           3.43693793e-03     9.33322190e-06     0.00000000e+00    
           3.44357546e-03     2.23658171e-05     0.00000000e+00    
           3.44618759e-03     3.66872482e-05     0.00000000e+00    
           3.44326557e-03     5.19350215e-05     0.00000000e+00    
           3.43495328e-03     6.80054582e-05     0.00000000e+00    
           3.42364120e-03     8.21298891e-05     0.00000000e+00    
           3.41028627e-03     9.35696589e-05     0.00000000e+00    
           3.39506473e-03     1.02147736e-04     0.00000000e+00    
           3.37847415e-03     1.07597596e-04     0.00000000e+00    
           3.34566901e-03     1.05358748e-04     0.00000000e+00    
           3.33154970e-03     9.83609134e-05     0.00000000e+00    
           3.32002225e-03     8.83387111e-05     0.00000000e+00    
           3.31187854e-03     7.58675887e-05     0.00000000e+00    
           3.30723193e-03     6.15389945e-05     0.00000000e+00    
           3.30835814e-03     4.53791035e-05     0.00000000e+00    
           3.31344316e-03     3.06767070e-05     0.00000000e+00    
           3.32239131e-03     1.90780829e-05     0.00000000e+00    
           3.33267916e-03     7.72588191e-06     0.00000000e+00    
           8.58441985e-04    -8.87223086e-06     0.00000000e+00    
           8.72971781e-04    -1.38341829e-05     0.00000000e+00    
           8.87901871e-04    -1.54933005e-05     0.00000000e+00    
           9.02316009e-04    -1.38543546e-05     0.00000000e+00    
           9.15474375e-04    -9.14584962e-06     0.00000000e+00    
           1.51356123e-03    -1.09812841e-04     0.00000000e+00    
           1.52230239e-03    -1.05396597e-04     0.00000000e+00    
           1.52914284e-03    -9.91023917e-05     0.00000000e+00    
           1.53404986e-03    -9.15038472e-05     0.00000000e+00    
           1.53649831e-03    -8.29638157e-05     0.00000000e+00    
           1.53590390e-03    -7.35691501e-05     0.00000000e+00    
           1.53183297e-03    -6.54962059e-05     0.00000000e+00    
           1.52596738e-03    -5.84858171e-05     0.00000000e+00    
           1.51881063e-03    -5.11876970e-05     0.00000000e+00    
           1.51008298e-03    -4.42633682e-05     0.00000000e+00    
           1.49994355e-03    -3.90835485e-05     0.00000000e+00    
           1.48900715e-03    -3.54104159e-05     0.00000000e+00    
           1.46816974e-03    -3.59858204e-05     0.00000000e+00    
           1.45916000e-03    -3.98929624e-05     0.00000000e+00    
           1.45183271e-03    -4.58541217e-05     0.00000000e+00    
           1.44652859e-03    -5.36534753e-05     0.00000000e+00    
           1.44394021e-03    -6.24125532e-05     0.00000000e+00    
           1.44465012e-03    -7.12905894e-05     0.00000000e+00    
           1.44768390e-03    -8.03249932e-05     0.00000000e+00    
           1.45374460e-03    -8.96360580e-05     0.00000000e+00    
           1.46207388e-03    -9.82874990e-05     0.00000000e+00    
           1.47189316e-03    -1.05354440e-04     0.00000000e+00    
           1.48241955e-03    -1.09869732e-04     0.00000000e+00    
           1.49312383e-03    -1.12078065e-04     0.00000000e+00    
           2.91273580e-03     4.60547017e-05     0.00000000e+00    
           2.92613171e-03     5.35227518e-05     0.00000000e+00    
           2.93644005e-03     6.43171006e-05     0.00000000e+00    
           2.94296490e-03     7.76982270e-05     0.00000000e+00    
           2.94448249e-03     9.29382732e-05     0.00000000e+00    
           2.94040726e-03     1.08539149e-04     0.00000000e+00    
           2.93174060e-03     1.22011043e-04     0.00000000e+00    
           2.92056496e-03     1.33111214e-04     0.00000000e+00    
           2.90656742e-03     1.42005840e-04     0.00000000e+00    
           2.89102062e-03     1.47730520e-04     0.00000000e+00    
           2.85935239e-03     1.45959100e-04     0.00000000e+00    
           2.84582586e-03     1.38562900e-04     0.00000000e+00    
           2.83548771e-03     1.27871186e-04     0.00000000e+00    
           2.82915868e-03     1.14784925e-04     0.00000000e+00    
           2.82819662e-03     1.00957936e-04     0.00000000e+00    
           2.83126114e-03     8.68363277e-05     0.00000000e+00    
           2.83893640e-03     7.28339655e-05     0.00000000e+00    
           2.85092741e-03     6.04939196e-05     0.00000000e+00    
           2.86493264e-03     5.07540426e-05     0.00000000e+00    
           2.88067712e-03     4.43101053e-05     0.00000000e+00    
           1.66234653e-03    -9.90589469e-05     0.00000000e+00    
           1.68274937e-03    -9.00691812e-05     0.00000000e+00    
           1.69999048e-03    -7.60902913e-05     0.00000000e+00    
           1.71205867e-03    -5.75074773e-05     0.00000000e+00    
           1.71871611e-03    -3.58046273e-05     0.00000000e+00    
           1.71943218e-03    -1.34080101e-05     0.00000000e+00    
           1.71330606e-03     8.33798458e-06     0.00000000e+00    
           1.70028396e-03     2.84905800e-05     0.00000000e+00    
           1.68343203e-03     4.35934890e-05     0.00000000e+00    
           1.66390475e-03     5.54080034e-05     0.00000000e+00    
           1.64183788e-03     6.32574665e-05     0.00000000e+00    
           1.59578421e-03     6.19905913e-05     0.00000000e+00    
           1.57506228e-03     5.27183183e-05     0.00000000e+00    
           1.55781745e-03     3.83929255e-05     0.00000000e+00    
           1.54522550e-03     1.99887836e-05     0.00000000e+00    
           1.53853616e-03    -1.33030528e-06     0.00000000e+00    
           1.53890450e-03    -2.44361290e-05     0.00000000e+00    
           1.54583552e-03    -4.63556680e-05     0.00000000e+00    
           1.55853271e-03    -6.52561794e-05     0.00000000e+00    
           1.57510571e-03    -8.03136645e-05     0.00000000e+00    
           1.59450562e-03    -9.29494272e-05     0.00000000e+00    
           1.61662360e-03    -1.00596379e-04     0.00000000e+00    
           3.10745876e-04     6.22371808e-05     0.00000000e+00    
           3.00138636e-04     4.10655011e-05     0.00000000e+00    
           2.95943231e-04     1.83974553e-05     0.00000000e+00    
           2.98423663e-04    -3.83536235e-06     0.00000000e+00    
           3.05991998e-04    -2.50960329e-05     0.00000000e+00    
           3.18764563e-04    -4.57285241e-05     0.00000000e+00    
           3.36924772e-04    -6.44441170e-05     0.00000000e+00    
           3.58997204e-04    -8.00868220e-05     0.00000000e+00    
           3.83533072e-04    -8.96952188e-05     0.00000000e+00    
           4.33766400e-04    -8.94626792e-05     0.00000000e+00    
           4.56266484e-04    -8.03227958e-05     0.00000000e+00    
           4.75302775e-04    -6.60966689e-05     0.00000000e+00    
           4.89960541e-04    -4.77089307e-05     0.00000000e+00    
           4.98464622e-04    -2.52930495e-05     0.00000000e+00    
           5.00279188e-04    -3.29467838e-07     0.00000000e+00    
           4.94968845e-04     2.49821369e-05     0.00000000e+00    
           4.83523239e-04     4.82462201e-05     0.00000000e+00    
           4.66931553e-04     6.81047677e-05     0.00000000e+00    
           2.92291748e-03     9.53182753e-05     0.00000000e+00    
           2.89741810e-03     1.00677404e-04     0.00000000e+00    
           2.87177996e-03     9.98483374e-05     0.00000000e+00    
           2.84775766e-03     9.25755885e-05     0.00000000e+00    
           7.99803529e-04    -1.06187756e-04     0.00000000e+00    
           8.22591595e-04    -9.60822072e-05     0.00000000e+00    
           8.41503206e-04    -8.02600771e-05     0.00000000e+00    
           8.54906975e-04    -5.97565049e-05     0.00000000e+00    
           8.61576118e-04    -3.66667082e-05     0.00000000e+00    
           8.61549401e-04    -1.34803486e-05     0.00000000e+00    
           8.54889280e-04     8.58239036e-06     0.00000000e+00    
           8.42212467e-04     3.02111184e-05     0.00000000e+00    
           8.23733397e-04     5.08445555e-05     0.00000000e+00    
           8.01204355e-04     6.70537629e-05     0.00000000e+00    
           7.76191649e-04     7.71774139e-05     0.00000000e+00    
           7.24803889e-04     7.63026983e-05     0.00000000e+00    
           7.01889105e-04     6.64968538e-05     0.00000000e+00    
           6.82922779e-04     5.12667248e-05     0.00000000e+00    
           6.69082219e-04     3.14063509e-05     0.00000000e+00    
           6.61573547e-04     7.77216337e-06     0.00000000e+00    
           6.61602535e-04    -1.81421947e-05     0.00000000e+00    
           6.69756613e-04    -4.44715042e-05     0.00000000e+00    
           6.83503691e-04    -6.68972352e-05     0.00000000e+00    
           7.02031364e-04    -8.50570068e-05     0.00000000e+00    