<?xml version="1.0"?>
<VTKFile type="UnstructuredGrid" version="0.1">
  <UnstructuredGrid>
    <Piece NumberOfPoints="1034" NumberOfCells="1614">
      <Points>
        <DataArray type="Float32" NumberOfComponents="3">
           5.21582007e-01     5.11657000e-01     0.00000000e+00    
           5.07319987e-01     5.11657000e-01     0.00000000e+00    
           4.65243995e-01     5.17907977e-01     0.00000000e+00    
           4.65243995e-01     5.04921973e-01     0.00000000e+00    
           4.75246996e-01     5.11415005e-01     0.00000000e+00    
           5.33852994e-01     5.04921973e-01     0.00000000e+00    
           5.33852994e-01     5.17907977e-01     0.00000000e+00    
           4.83779997e-01     5.34618974e-01     0.00000000e+00    
           4.68984991e-01     5.34618974e-01     0.00000000e+00    
           4.76381987e-01     5.23841977e-01     0.00000000e+00    
           4.68984991e-01     4.66010004e-01     0.00000000e+00    
           4.83779997e-01     4.66010004e-01     0.00000000e+00    
           4.99920011e-01     5.34618974e-01     0.00000000e+00    
           4.89203990e-01     5.34618974e-01     0.00000000e+00    
           4.94562000e-01     5.22280991e-01     0.00000000e+00    
           4.89203990e-01     4.66010004e-01     0.00000000e+00    
           4.99920011e-01     4.66010004e-01     0.00000000e+00    
           5.32517016e-01     4.74112004e-01     0.00000000e+00    
           5.17961025e-01     4.74112004e-01     0.00000000e+00    
           5.33852994e-01     5.19801974e-01     0.00000000e+00    
           5.33852994e-01     5.29603004e-01     0.00000000e+00    
           5.19536972e-01     5.24702013e-01     0.00000000e+00    
           4.65243995e-01     5.29603004e-01     0.00000000e+00    
           4.65243995e-01     5.19801974e-01     0.00000000e+00    
           4.92487997e-01     5.17117977e-01     0.00000000e+00    
           4.76904988e-01     5.17117977e-01     0.00000000e+00    
           5.17996013e-01     5.27033985e-01     0.00000000e+00    
           5.04473984e-01     5.27033985e-01     0.00000000e+00    
           5.08446991e-01     4.83435005e-01     0.00000000e+00    
           4.94414002e-01     4.83435005e-01     0.00000000e+00    
           4.65243995e-01     4.83101994e-01     0.00000000e+00    
           4.65243995e-01     4.74415004e-01     0.00000000e+00    
           4.78336990e-01     4.78758007e-01     0.00000000e+00    
           5.33852994e-01     4.74415004e-01     0.00000000e+00    
           5.33852994e-01     4.83101994e-01     0.00000000e+00    
           4.80668008e-01     4.95810986e-01     0.00000000e+00    
           4.66084987e-01     4.95810986e-01     0.00000000e+00    
           4.93930012e-01     4.79214013e-01     0.00000000e+00    
           4.78967011e-01     4.79214013e-01     0.00000000e+00    
           5.09284973e-01     4.97658014e-01     0.00000000e+00    
           4.95503992e-01     4.97658014e-01     0.00000000e+00    
           5.33011973e-01     5.01751006e-01     0.00000000e+00    
           5.17829001e-01     5.01751006e-01     0.00000000e+00    
           4.95451003e-01     5.00564992e-01     0.00000000e+00    
           4.80922014e-01     5.00564992e-01     0.00000000e+00    
           5.25367022e-01     4.88312006e-01     0.00000000e+00    
           5.09521008e-01     4.88312006e-01     0.00000000e+00    
           4.65243995e-01     5.34618974e-01     0.00000000e+00    
           4.65243995e-01     4.66010004e-01     0.00000000e+00    
           5.33852994e-01     4.66010004e-01     0.00000000e+00    
           5.33852994e-01     5.34618974e-01     0.00000000e+00    
           5.21338999e-01     5.13502657e-01     0.00000000e+00    
           5.20626605e-01     5.15222490e-01     0.00000000e+00    
           5.19493401e-01     5.16699374e-01     0.00000000e+00    
           5.18016517e-01     5.17832637e-01     0.00000000e+00    
           5.16296625e-01     5.18545032e-01     0.00000000e+00    
           5.14451027e-01     5.18787980e-01     0.00000000e+00    
           5.12605369e-01     5.18545032e-01     0.00000000e+00    
           5.10885477e-01     5.17832637e-01     0.00000000e+00    
           5.09408593e-01     5.16699374e-01     0.00000000e+00    
           5.08275390e-01     5.15222490e-01     0.00000000e+00    
           5.07562995e-01     5.13502657e-01     0.00000000e+00    
           5.07562995e-01     5.09811342e-01     0.00000000e+00    
           5.08275390e-01     5.08091509e-01     0.00000000e+00    
           5.09408593e-01     5.06614625e-01     0.00000000e+00    
           5.10885477e-01     5.05481362e-01     0.00000000e+00    
           5.12605369e-01     5.04768968e-01     0.00000000e+00    
           5.14451027e-01     5.04526019e-01     0.00000000e+00    
           5.16296625e-01     5.04768968e-01     0.00000000e+00    
           5.18016517e-01     5.05481362e-01     0.00000000e+00    
           5.19493401e-01     5.06614625e-01     0.00000000e+00    
           5.20626605e-01     5.08091509e-01     0.00000000e+00    
           5.21338999e-01     5.09811342e-01     0.00000000e+00    
           4.66931671e-01     5.04409373e-01     0.00000000e+00    
           4.68693614e-01     5.04328012e-01     0.00000000e+00    
           4.70421344e-01     5.04682958e-01     0.00000000e+00    
           4.72008497e-01     5.05452335e-01     0.00000000e+00    
           4.73357379e-01     5.06588817e-01     0.00000000e+00    
           4.74384934e-01     5.08022368e-01     0.00000000e+00    
           4.75027919e-01     5.09664834e-01     0.00000000e+00    
           4.75028187e-01     5.13165236e-01     0.00000000e+00    
           4.74385172e-01     5.14807761e-01     0.00000000e+00    
           4.73357558e-01     5.16241372e-01     0.00000000e+00    
           4.72008646e-01     5.17377913e-01     0.00000000e+00    
           4.70421433e-01     5.18147290e-01     0.00000000e+00    
           4.68693614e-01     5.18502235e-01     0.00000000e+00    
           4.66931641e-01     5.18420875e-01     0.00000000e+00    
           5.32303810e-01     5.16964078e-01     0.00000000e+00    
           5.31043947e-01     5.15658796e-01     0.00000000e+00    
           5.30155540e-01     5.14077127e-01     0.00000000e+00    
           5.29696345e-01     5.12322068e-01     0.00000000e+00    
           5.29696345e-01     5.10507941e-01     0.00000000e+00    
           5.30155540e-01     5.08752882e-01     0.00000000e+00    
           5.31043947e-01     5.07171214e-01     0.00000000e+00    
           5.32303810e-01     5.05865932e-01     0.00000000e+00    
           4.68517244e-01     5.32760799e-01     0.00000000e+00    
           4.68509018e-01     5.30844629e-01     0.00000000e+00    
           4.68960851e-01     5.28982460e-01     0.00000000e+00    
           4.69846308e-01     5.27283132e-01     0.00000000e+00    
           4.71113682e-01     5.25845945e-01     0.00000000e+00    
           4.72688884e-01     5.24754822e-01     0.00000000e+00    
           4.74479854e-01     5.24073541e-01     0.00000000e+00    
           4.78284091e-01     5.24073601e-01     0.00000000e+00    
           4.80075032e-01     5.24754822e-01     0.00000000e+00    
           4.81650203e-01     5.25845885e-01     0.00000000e+00    
           4.82917547e-01     5.27283013e-01     0.00000000e+00    
           4.83803004e-01     5.28982282e-01     0.00000000e+00    
           4.84254897e-01     5.30844331e-01     0.00000000e+00    
           4.84246761e-01     5.32760441e-01     0.00000000e+00    
           4.82887864e-01     4.67691004e-01     0.00000000e+00    
           4.81620818e-01     4.69110936e-01     0.00000000e+00    
           4.80051905e-01     4.70188022e-01     0.00000000e+00    
           4.78271484e-01     4.70860153e-01     0.00000000e+00    
           4.76382166e-01     4.71088618e-01     0.00000000e+00    
           4.74492878e-01     4.70860243e-01     0.00000000e+00    
           4.72712427e-01     4.70188200e-01     0.00000000e+00    
           4.71143454e-01     4.69111174e-01     0.00000000e+00    
           4.69876349e-01     4.67691302e-01     0.00000000e+00    
           4.88103986e-01     5.33086061e-01     0.00000000e+00    
           4.87431526e-01     5.31323195e-01     0.00000000e+00    
           4.87231195e-01     5.29447019e-01     0.00000000e+00    
           4.87516224e-01     5.27581930e-01     0.00000000e+00    
           4.88267750e-01     5.25851250e-01     0.00000000e+00    
           4.89436030e-01     5.24369657e-01     0.00000000e+00    
           4.90943670e-01     5.23235261e-01     0.00000000e+00    
           4.92690891e-01     5.22523046e-01     0.00000000e+00    
           4.96432930e-01     5.22523701e-01     0.00000000e+00    
           4.98180002e-01     5.23235798e-01     0.00000000e+00    
           4.99687493e-01     5.24370134e-01     0.00000000e+00    
           5.00855684e-01     5.25851607e-01     0.00000000e+00    
           5.01607120e-01     5.27582109e-01     0.00000000e+00    
           5.01892149e-01     5.29447079e-01     0.00000000e+00    
           5.01691818e-01     5.31323016e-01     0.00000000e+00    
           5.01019418e-01     5.33085763e-01     0.00000000e+00    
           4.98371124e-01     4.67269689e-01     0.00000000e+00    
           4.96539861e-01     4.68064904e-01     0.00000000e+00    
           4.94562000e-01     4.68336672e-01     0.00000000e+00    
           4.92584139e-01     4.68064904e-01     0.00000000e+00    
           4.90752876e-01     4.67269689e-01     0.00000000e+00    
           5.32269001e-01     4.75995690e-01     0.00000000e+00    
           5.31541944e-01     4.77750987e-01     0.00000000e+00    
           5.30385315e-01     4.79258329e-01     0.00000000e+00    
           5.28877974e-01     4.80414927e-01     0.00000000e+00    
[...]
      <PointData>
        <DataArray type="Float32" Name="Displacement" NumberOfComponents="3">
           3.26634326e-04     6.37078756e-06     0.00000000e+00    
           3.18538019e-04     7.15645001e-06     0.00000000e+00    
           9.14908960e-05     3.89766626e-07     0.00000000e+00    
           7.39136158e-05    -1.99093120e-06     0.00000000e+00    
           9.15023920e-05    -7.10195536e-06     0.00000000e+00    
           3.73913615e-04    -1.99093120e-06     0.00000000e+00    
           3.91490903e-04     3.89766626e-07     0.00000000e+00    
           1.86301520e-04    -1.20284531e-05     0.00000000e+00    
           1.77316266e-04     6.06347157e-06     0.00000000e+00    
           1.65755089e-04    -3.27215821e-06     0.00000000e+00    
           2.73162641e-05     6.06347157e-06     0.00000000e+00    
           3.63015242e-05    -1.20284531e-05     0.00000000e+00    
           2.49571662e-04    -2.34508170e-05     0.00000000e+00    
           2.42746333e-04    -1.06379121e-05     0.00000000e+00    
           2.26736243e-04    -1.83082921e-05     0.00000000e+00    
           9.27463261e-05    -1.06379121e-05     0.00000000e+00    
           9.95716618e-05    -2.34508170e-05     0.00000000e+00    
           3.00626416e-04     1.39606072e-05     0.00000000e+00    
           2.88335374e-04     2.25405511e-05     0.00000000e+00    
           3.83398874e-04     3.96497732e-08     0.00000000e+00    
           4.03128215e-04     1.38928627e-07     0.00000000e+00    
           3.81034188e-04     2.20381808e-05     0.00000000e+00    
           1.03128223e-04     1.38928627e-07     0.00000000e+00    
           8.33988670e-05     3.96497732e-08     0.00000000e+00    
           1.76730173e-04    -1.64300254e-05     0.00000000e+00    
           1.65788981e-04     4.53791745e-06     0.00000000e+00    
           3.36406141e-04     1.11503805e-05     0.00000000e+00    
           3.22552194e-04     7.99293321e-06     0.00000000e+00    
           1.89115279e-04    -4.73308455e-06     0.00000000e+00    
           1.73139546e-04     3.13305577e-06     0.00000000e+00    
           5.42390226e-05     1.42721256e-05     0.00000000e+00    
           3.47879140e-05     1.33953008e-05     0.00000000e+00    
           5.97395192e-05    -7.18434740e-06     0.00000000e+00    
           3.34787910e-04     1.33953008e-05     0.00000000e+00    
           3.54239019e-04     1.42721256e-05     0.00000000e+00    
           1.05615465e-04    -9.49621665e-07     0.00000000e+00    
           9.22899417e-05     1.11697727e-05     0.00000000e+00    
           1.13026777e-04    -1.29687542e-05     0.00000000e+00    
           9.42738116e-05     3.89617480e-06     0.00000000e+00    
           2.07658653e-04    -1.02469335e-06     0.00000000e+00    
           1.94517372e-04     4.93153630e-06     0.00000000e+00    
           3.39922030e-04    -7.34738751e-06     0.00000000e+00    
           3.29176080e-04     1.61151856e-05     0.00000000e+00    
           1.68520870e-04    -9.20801358e-06     0.00000000e+00    
           1.52098510e-04    -5.14624662e-06     0.00000000e+00    
           2.71213765e-04     1.05891550e-05     0.00000000e+00    
           2.57914711e-04     1.90997926e-05     0.00000000e+00    
           1.50000007e-04     0.00000000e+00     0.00000000e+00    
           0.00000000e+00     0.00000000e+00     0.00000000e+00    
           3.00000014e-04     0.00000000e+00     0.00000000e+00    
           4.49999992e-04     0.00000000e+00     0.00000000e+00    
           3.26971087e-04     6.48851028e-06     0.00000000e+00    
           3.27408168e-04     6.79650384e-06     0.00000000e+00    
           3.27621674e-04     7.08477273e-06     0.00000000e+00    
           3.27407412e-04     7.17099056e-06     0.00000000e+00    
           3.26795358e-04     7.02262469e-06     0.00000000e+00    
           3.25873727e-04     6.76259606e-06     0.00000000e+00    
           3.25026078e-04     6.72771603e-06     0.00000000e+00    
           3.23940272e-04     6.94874325e-06     0.00000000e+00    
           3.22442851e-04     7.24523125e-06     0.00000000e+00    
           3.21038213e-04     7.39493271e-06     0.00000000e+00    
           3.19725106e-04     7.35393724e-06     0.00000000e+00    
           3.17522732e-04     6.72896977e-06     0.00000000e+00    
           3.16781778e-04     6.17800742e-06     0.00000000e+00    
           3.16490536e-04     5.65455912e-06     0.00000000e+00    
           3.16787016e-04     5.34812807e-06     0.00000000e+00    
           3.17954546e-04     5.19143350e-06     0.00000000e+00    
           3.19909857e-04     5.27005704e-06     0.00000000e+00    
           3.22075182e-04     5.65660685e-06     0.00000000e+00    
           3.24485183e-04     6.21573099e-06     0.00000000e+00    
           3.26770678e-04     6.24234826e-06     0.00000000e+00    
           3.27206828e-04     6.38795382e-06     0.00000000e+00    
           3.26597336e-04     6.34189837e-06     0.00000000e+00    
           7.59953546e-05    -2.50954736e-06     0.00000000e+00    
           7.80276168e-05    -2.60384809e-06     0.00000000e+00    
           7.96699169e-05    -3.14749559e-06     0.00000000e+00    
           8.15327803e-05    -4.13853058e-06     0.00000000e+00    
           8.35404499e-05    -5.39928351e-06     0.00000000e+00    
           8.60109576e-05    -6.43089243e-06     0.00000000e+00    
           8.86520866e-05    -7.03787600e-06     0.00000000e+00    
           9.40150858e-05    -6.87390730e-06     0.00000000e+00    
           9.55465875e-05    -6.45023010e-06     0.00000000e+00    
           9.61172118e-05    -5.77486253e-06     0.00000000e+00    
           9.60019024e-05    -4.74629951e-06     0.00000000e+00    
           9.55660871e-05    -3.41347459e-06     0.00000000e+00    
           9.45999491e-05    -1.95293137e-06     0.00000000e+00    
           9.31844115e-05    -8.01878002e-07     0.00000000e+00    
           3.89840774e-04     1.79437154e-06     0.00000000e+00    
           3.88079468e-04     2.93931248e-06     0.00000000e+00    
           3.85731895e-04     3.82335838e-06     0.00000000e+00    
           3.82851926e-04     4.12597046e-06     0.00000000e+00    
           3.79500125e-04     3.72747695e-06     0.00000000e+00    
           3.75846401e-04     2.31679701e-06     0.00000000e+00    
           3.72564158e-04     6.75496210e-08     0.00000000e+00    
           3.72464594e-04    -1.51517258e-06     0.00000000e+00    
           1.73458975e-04     6.25373559e-06     0.00000000e+00    
           1.69726220e-04     5.77801211e-06     0.00000000e+00    
           1.66619153e-04     4.98169493e-06     0.00000000e+00    
           1.64697864e-04     3.86418151e-06     0.00000000e+00    
           1.63919773e-04     2.29514603e-06     0.00000000e+00    
           1.63940451e-04     3.96155855e-07     0.00000000e+00    
           1.64624915e-04    -1.59667809e-06     0.00000000e+00    
           1.67463630e-04    -4.77605090e-06     0.00000000e+00    
           1.69383798e-04    -6.50455831e-06     0.00000000e+00    
           1.71812440e-04    -8.49551998e-06     0.00000000e+00    
           1.74835179e-04    -1.03788097e-05     0.00000000e+00    
           1.78461050e-04    -1.19007436e-05     0.00000000e+00    
           1.81673895e-04    -1.27436970e-05     0.00000000e+00    
           1.84274351e-04    -1.27904877e-05     0.00000000e+00    
           3.80644051e-05    -1.06505322e-05     0.00000000e+00    
           3.95124880e-05    -8.77871935e-06     0.00000000e+00    
           4.03544072e-05    -6.73791419e-06     0.00000000e+00    
           4.03486010e-05    -4.70121859e-06     0.00000000e+00    
           3.95574680e-05    -2.89098625e-06     0.00000000e+00    
           3.82541948e-05    -1.06766743e-06     0.00000000e+00    
           3.64668849e-05     1.21823666e-06     0.00000000e+00    
           3.40197912e-05     3.32770310e-06     0.00000000e+00    
           3.08106210e-05     5.04881200e-06     0.00000000e+00    
           2.39363682e-04    -9.08811944e-06     0.00000000e+00    
           2.35898231e-04    -8.05559102e-06     0.00000000e+00    
           2.32763763e-04    -7.70100269e-06     0.00000000e+00    
           2.30026490e-04    -8.12267899e-06     0.00000000e+00    
           2.27055425e-04    -9.85516635e-06     0.00000000e+00    
           2.24716496e-04    -1.21664516e-05     0.00000000e+00    
           2.23984214e-04    -1.43417201e-05     0.00000000e+00    
           2.24772171e-04    -1.63039967e-05     0.00000000e+00    
           2.29331097e-04    -2.02887295e-05     0.00000000e+00    
           2.32424150e-04    -2.19956964e-05     0.00000000e+00    
           2.35974891e-04    -2.33584306e-05     0.00000000e+00    
           2.39679634e-04    -2.44596176e-05     0.00000000e+00    
           2.43020768e-04    -2.53431554e-05     0.00000000e+00    
           2.45605101e-04    -2.57087777e-05     0.00000000e+00    
           2.47280143e-04    -2.56315889e-05     0.00000000e+00    
           2.48520169e-04    -2.47365697e-05     0.00000000e+00    
           1.00236910e-04    -2.16557037e-05     0.00000000e+00    
           1.00330522e-04    -1.95301527e-05     0.00000000e+00    
           9.96964882e-05    -1.72146665e-05     0.00000000e+00    
           9.81834892e-05    -1.48877880e-05     0.00000000e+00    
           9.58939636e-05    -1.26648420e-05     0.00000000e+00    
           3.03459965e-04     1.49490834e-05     0.00000000e+00    
           3.03914421e-04     1.58958319e-05     0.00000000e+00    
           3.02663422e-04     1.63201312e-05     0.00000000e+00    
           3.00813204e-04     1.71736938e-05     0.00000000e+00    
           2.98843806e-04     1.80361385e-05     0.00000000e+00    
           2.96933838e-04     1.88353024e-05     0.00000000e+00    
           2.94637051e-04     1.92176612e-05     0.00000000e+00    
           2.93147663e-04     2.00153954e-05     0.00000000e+00    
           2.92353739e-04     2.06577497e-05     0.00000000e+00    
           2.91309087e-04     2.14340780e-05     0.00000000e+00    
           2.89909280e-04     2.21735481e-05     0.00000000e+00    
           2.86872673e-04     2.25377153e-05     0.00000000e+00    
           2.85569491e-04     2.21881655e-05     0.00000000e+00    
           2.84542446e-04     2.16051758e-05     0.00000000e+00    
           2.83959555e-04     2.08098809e-05     0.00000000e+00    
           2.83983158e-04     1.99195238e-05     0.00000000e+00    
           2.84478068e-04     1.87718488e-05     0.00000000e+00    
           2.85618473e-04     1.72482614e-05     0.00000000e+00    
           2.87682546e-04     1.55809939e-05     0.00000000e+00    
           2.90195603e-04     1.42221043e-05     0.00000000e+00    
           2.93172110e-04     1.33812282e-05     0.00000000e+00    
           2.96595856e-04     1.32508521e-05     0.00000000e+00    
           4.04461956e-04     2.09337577e-06     0.00000000e+00    
           4.05058818e-04     4.52482209e-06     0.00000000e+00    
           4.05020750e-04     7.41398026e-06     0.00000000e+00    
           4.03957238e-04     1.05071413e-05     0.00000000e+00    
           4.01627243e-04     1.38757523e-05     0.00000000e+00    
           3.98159085e-04     1.69371324e-05     0.00000000e+00    
           3.93804512e-04     1.92969310e-05     0.00000000e+00    
           3.89015942e-04     2.10308590e-05     0.00000000e+00    
           3.84389336e-04     2.19999110e-05     0.00000000e+00    
           3.78750556e-04     2.12175000e-05     0.00000000e+00    
           3.76684155e-04     1.96195815e-05     0.00000000e+00    
           3.74877884e-04     1.76537214e-05     0.00000000e+00    
           3.73808492e-04     1.54274276e-05     0.00000000e+00    
           3.73593241e-04     1.29104465e-05     0.00000000e+00    
           3.74428811e-04     1.01001806e-05     0.00000000e+00    
           3.75890319e-04     7.18102774e-06     0.00000000e+00    
           3.78040248e-04     4.46992044e-06     0.00000000e+00    
           3.80492856e-04     1.98555517e-06     0.00000000e+00    
           8.66874107e-05    -1.35401206e-06     0.00000000e+00    
           9.04713597e-05    -2.20596507e-06     0.00000000e+00    
           9.44300482e-05    -2.34901722e-06     0.00000000e+00    
           9.81216217e-05    -1.89870207e-06     0.00000000e+00    
           1.01105776e-04    -1.04416767e-06     0.00000000e+00    
           1.80327974e-04    -1.59801039e-05     0.00000000e+00    
           1.83907148e-04    -1.44918822e-05     0.00000000e+00    
           1.87135622e-04    -1.21805033e-05     0.00000000e+00    
           1.88810343e-04    -9.60456691e-06     0.00000000e+00    
           1.88781400e-04    -7.42017164e-06     0.00000000e+00    
           1.87225713e-04    -5.26648182e-06     0.00000000e+00    
           1.85175973e-04    -3.67195753e-06     0.00000000e+00    
           1.83107986e-04    -2.02343222e-06     0.00000000e+00    
           1.80661387e-04    -1.50407899e-07     0.00000000e+00    
           1.77770009e-04     1.87804994e-06     0.00000000e+00    
           1.74089873e-04     3.42445696e-06     0.00000000e+00    
           1.69982057e-04     4.36809296e-06     0.00000000e+00    
           1.62035140e-04     4.06293384e-06     0.00000000e+00    
           1.59500763e-04     3.20890240e-06     0.00000000e+00    
           1.58208626e-04     2.11041993e-06     0.00000000e+00    
           1.57767703e-04     3.74627461e-07     0.00000000e+00    
           1.57884002e-04    -1.67172107e-06     0.00000000e+00    
           1.58592142e-04    -3.80478559e-06     0.00000000e+00    
           1.59526695e-04    -6.05735568e-06     0.00000000e+00    
           1.60977448e-04    -8.40870871e-06     0.00000000e+00    
           1.63230390e-04    -1.08431987e-05     0.00000000e+00    
           1.66063226e-04    -1.31075658e-05     0.00000000e+00    
           1.69426814e-04    -1.48562585e-05     0.00000000e+00    
           1.73044667e-04    -1.60156997e-05     0.00000000e+00    
           3.35519901e-04     1.12418638e-05     0.00000000e+00    
           3.34323820e-04     1.13543774e-05     0.00000000e+00    
           3.33199830e-04     1.12266125e-05     0.00000000e+00    
           3.32049938e-04     1.09058292e-05     0.00000000e+00    
           3.30560608e-04     1.04356168e-05     0.00000000e+00    
           3.28913360e-04     9.89322052e-06     0.00000000e+00    
           3.27069924e-04     9.27923611e-06     0.00000000e+00    
           3.25252884e-04     8.62878460e-06     0.00000000e+00    
           3.23540880e-04     8.13393581e-06     0.00000000e+00    
           3.22478445e-04     7.92002538e-06     0.00000000e+00    
           3.23645305e-04     8.37824427e-06     0.00000000e+00    
           3.25017987e-04     8.67274230e-06     0.00000000e+00    
           3.26398876e-04     9.15160854e-06     0.00000000e+00    
           3.27669084e-04     9.76674164e-06     0.00000000e+00    
           3.28933354e-04     1.04458823e-05     0.00000000e+00    
           3.29906499e-04     1.08176573e-05     0.00000000e+00    
           3.31121264e-04     1.08468848e-05     0.00000000e+00    
           3.32936237e-04     1.08714503e-05     0.00000000e+00    
           3.34590906e-04     1.10099336e-05     0.00000000e+00    
           3.36078199e-04     1.11629952e-05     0.00000000e+00    
           1.91728046e-04    -4.09377935e-06     0.00000000e+00    
           1.92751846e-04    -3.97729309e-06     0.00000000e+00    
           1.92454361e-04    -3.53473729e-06     0.00000000e+00    
           1.91568382e-04    -2.95271479e-06     0.00000000e+00    
           1.90985927e-04    -1.87914065e-06     0.00000000e+00    
           1.90414532e-04    -6.12653878e-07     0.00000000e+00    
           1.88957332e-04     3.82270571e-07     0.00000000e+00    
           1.86869962e-04     1.53595613e-06     0.00000000e+00    
           1.84151970e-04     2.46720651e-06     0.00000000e+00    
           1.81041076e-04     3.00193619e-06     0.00000000e+00    
           1.77200884e-04     3.37569668e-06     0.00000000e+00    
           1.70212283e-04     2.70709734e-06     0.00000000e+00    
           1.69267456e-04     2.32717071e-06     0.00000000e+00    
           1.69885636e-04     1.90789706e-06     0.00000000e+00    
           1.70767278e-04     1.26554880e-06     0.00000000e+00    
           1.71821026e-04     2.42258466e-07     0.00000000e+00    
           1.73109438e-04    -9.51410641e-07     0.00000000e+00    
           1.74892455e-04    -2.06820255e-06     0.00000000e+00    
           1.77046866e-04    -3.13276178e-06     0.00000000e+00    
           1.79673923e-04    -3.94217932e-06     0.00000000e+00    
           1.82569522e-04    -4.55316376e-06     0.00000000e+00    
           1.85711542e-04    -4.72719921e-06     0.00000000e+00    
           3.47292662e-05     1.18458638e-05     0.00000000e+00    
           3.48393005e-05     9.69624307e-06     0.00000000e+00    
           3.53505384e-05     7.26889948e-06     0.00000000e+00    
           3.63130384e-05     4.61441732e-06     0.00000000e+00    
           3.80415149e-05     1.80566497e-06     0.00000000e+00    
           4.07180924e-05    -1.16465458e-06     0.00000000e+00    
           4.46297345e-05    -3.78716231e-06     0.00000000e+00    
           4.95160784e-05    -5.82575058e-06     0.00000000e+00    
           5.50673940e-05    -7.01846557e-06     0.00000000e+00    
           6.22762964e-05    -6.73445174e-06     0.00000000e+00    
           6.30215945e-05    -5.92460128e-06     0.00000000e+00    
           6.37048870e-05    -4.62179514e-06     0.00000000e+00    
           6.44384199e-05    -2.74531681e-06     0.00000000e+00    
           6.48616842e-05    -2.78833596e-07     0.00000000e+00    
           6.46543776e-05     2.70211399e-06     0.00000000e+00    
           6.33936361e-05     5.89261663e-06     0.00000000e+00    
           6.11684591e-05     9.17470970e-06     0.00000000e+00    
           5.80466731e-05     1.20065160e-05     0.00000000e+00    
           3.49696726e-04     1.58856255e-05     0.00000000e+00    
           3.44364060e-04     1.62596352e-05     0.00000000e+00    
           3.39215127e-04     1.59063620e-05     0.00000000e+00    
           3.35830642e-04     1.46213879e-05     0.00000000e+00    
           1.08669272e-04    -4.48246027e-07     0.00000000e+00    
           1.09485431e-04     2.14539114e-07     0.00000000e+00    
           1.08668159e-04     1.17875697e-06     0.00000000e+00    
           1.07403910e-04     2.24620180e-06     0.00000000e+00    
           1.06012616e-04     3.27304315e-06     0.00000000e+00    
           1.04420978e-04     4.23721394e-06     0.00000000e+00    
           1.02715429e-04     5.26382973e-06     0.00000000e+00    
           1.00781515e-04     6.71914495e-06     0.00000000e+00    
           9.83408099e-05     8.35957871e-06     0.00000000e+00    
           9.58507735e-05     9.68884706e-06     0.00000000e+00    
           9.37796067e-05     1.07587193e-05     0.00000000e+00    
           9.11887837e-05     1.10812080e-05     0.00000000e+00    
           9.02354150e-05     1.06813986e-05     0.00000000e+00    
           8.95804842e-05     9.93830872e-06     0.00000000e+00    
           8.92104945e-05     8.82141285e-06     0.00000000e+00    
           8.91790405e-05     7.29952808e-06     0.00000000e+00    
           8.97129794e-05     5.45764487e-06     0.00000000e+00    
           9.09197406e-05     3.45189483e-06     0.00000000e+00    
           9.27354849e-05     1.70674866e-06     0.00000000e+00    
           9.51933398e-05     3.37292448e-07     0.00000000e+00    