<?xml version="1.0"?>
<VTKFile type="UnstructuredGrid" version="0.1">
  <UnstructuredGrid>
    <Piece NumberOfPoints="1034" NumberOfCells="1614">
      <Points>
        <DataArray type="Float32" NumberOfComponents="3">
           5.21582007e-01     5.11657000e-01     0.00000000e+00    
           5.07319987e-01     5.11657000e-01     0.00000000e+00    
           4.65243995e-01     5.17907977e-01     0.00000000e+00    
           4.65243995e-01     5.04921973e-01     0.00000000e+00    
           4.75246996e-01     5.11415005e-01     0.00000000e+00    
           5.33852994e-01     5.04921973e-01     0.00000000e+00    
           5.33852994e-01     5.17907977e-01     0.00000000e+00    
           4.83779997e-01     5.34618974e-01     0.00000000e+00    
           4.68984991e-01     5.34618974e-01     0.00000000e+00    
           4.76381987e-01     5.23841977e-01     0.00000000e+00    
           4.68984991e-01     4.66010004e-01     0.00000000e+00    
           4.83779997e-01     4.66010004e-01     0.00000000e+00    
           4.99920011e-01     5.34618974e-01     0.00000000e+00    
           4.89203990e-01     5.34618974e-01     0.00000000e+00    
           4.94562000e-01     5.22280991e-01     0.00000000e+00    
           4.89203990e-01     4.66010004e-01     0.00000000e+00    
           4.99920011e-01     4.66010004e-01     0.00000000e+00    
           5.32517016e-01     4.74112004e-01     0.00000000e+00    
           5.17961025e-01     4.74112004e-01     0.00000000e+00    
           5.33852994e-01     5.19801974e-01     0.00000000e+00    
           5.33852994e-01     5.29603004e-01     0.00000000e+00    
           5.19536972e-01     5.24702013e-01     0.00000000e+00    
           4.65243995e-01     5.29603004e-01     0.00000000e+00    
           4.65243995e-01     5.19801974e-01     0.00000000e+00    
           4.92487997e-01     5.17117977e-01     0.00000000e+00    
           4.76904988e-01     5.17117977e-01     0.00000000e+00    
           5.17996013e-01     5.27033985e-01     0.00000000e+00    
           5.04473984e-01     5.27033985e-01     0.00000000e+00    
           5.08446991e-01     4.83435005e-01     0.00000000e+00    
           4.94414002e-01     4.83435005e-01     0.00000000e+00    
           4.65243995e-01     4.83101994e-01     0.00000000e+00    
           4.65243995e-01     4.74415004e-01     0.00000000e+00    
           4.78336990e-01     4.78758007e-01     0.00000000e+00    
           5.33852994e-01     4.74415004e-01     0.00000000e+00    
           5.33852994e-01     4.83101994e-01     0.00000000e+00    
           4.80668008e-01     4.95810986e-01     0.00000000e+00    
           4.66084987e-01     4.95810986e-01     0.00000000e+00    
           4.93930012e-01     4.79214013e-01     0.00000000e+00    
           4.78967011e-01     4.79214013e-01     0.00000000e+00    
           5.09284973e-01     4.97658014e-01     0.00000000e+00    
           4.95503992e-01     4.97658014e-01     0.00000000e+00    
           5.33011973e-01     5.01751006e-01     0.00000000e+00    
           5.17829001e-01     5.01751006e-01     0.00000000e+00    
           4.95451003e-01     5.00564992e-01     0.00000000e+00    
           4.80922014e-01     5.00564992e-01     0.00000000e+00    
           5.25367022e-01     4.88312006e-01     0.00000000e+00    
           5.09521008e-01     4.88312006e-01     0.00000000e+00    
           4.65243995e-01     5.34618974e-01     0.00000000e+00    
           4.65243995e-01     4.66010004e-01     0.00000000e+00    
           5.33852994e-01     4.66010004e-01     0.00000000e+00    
           5.33852994e-01     5.34618974e-01     0.00000000e+00    
           5.21338999e-01     5.13502657e-01     0.00000000e+00    
           5.20626605e-01     5.15222490e-01     0.00000000e+00    
           5.19493401e-01     5.16699374e-01     0.00000000e+00    
           5.18016517e-01     5.17832637e-01     0.00000000e+00    
           5.16296625e-01     5.18545032e-01     0.00000000e+00    
           5.14451027e-01     5.18787980e-01     0.00000000e+00    
           5.12605369e-01     5.18545032e-01     0.00000000e+00    
           5.10885477e-01     5.17832637e-01     0.00000000e+00    
           5.09408593e-01     5.16699374e-01     0.00000000e+00    
           5.08275390e-01     5.15222490e-01     0.00000000e+00    
           5.07562995e-01     5.13502657e-01     0.00000000e+00    
           5.07562995e-01     5.09811342e-01     0.00000000e+00    
           5.08275390e-01     5.08091509e-01     0.00000000e+00    
           5.09408593e-01     5.06614625e-01     0.00000000e+00    
           5.10885477e-01     5.05481362e-01     0.00000000e+00    
           5.12605369e-01     5.04768968e-01     0.00000000e+00    
           5.14451027e-01     5.04526019e-01     0.00000000e+00    
           5.16296625e-01     5.04768968e-01     0.00000000e+00    
           5.18016517e-01     5.05481362e-01     0.00000000e+00    
           5.19493401e-01     5.06614625e-01     0.00000000e+00    
           5.20626605e-01     5.08091509e-01     0.00000000e+00    
           5.21338999e-01     5.09811342e-01     0.00000000e+00    
           4.66931671e-01     5.04409373e-01     0.00000000e+00    
           4.68693614e-01     5.04328012e-01     0.00000000e+00    
           4.70421344e-01     5.04682958e-01     0.00000000e+00    
           4.72008497e-01     5.05452335e-01     0.00000000e+00    
           4.73357379e-01     5.06588817e-01     0.00000000e+00    
           4.74384934e-01     5.08022368e-01     0.00000000e+00    
           4.75027919e-01     5.09664834e-01     0.00000000e+00    
           4.75028187e-01     5.13165236e-01     0.00000000e+00    
           4.74385172e-01     5.14807761e-01     0.00000000e+00    
           4.73357558e-01     5.16241372e-01     0.00000000e+00    
           4.72008646e-01     5.17377913e-01     0.00000000e+00    
           4.70421433e-01     5.18147290e-01     0.00000000e+00    
           4.68693614e-01     5.18502235e-01     0.00000000e+00    
           4.66931641e-01     5.18420875e-01     0.00000000e+00    
           5.32303810e-01     5.16964078e-01     0.00000000e+00    
           5.31043947e-01     5.15658796e-01     0.00000000e+00    
           5.30155540e-01     5.14077127e-01     0.00000000e+00    
           5.29696345e-01     5.12322068e-01     0.00000000e+00    
           5.29696345e-01     5.10507941e-01     0.00000000e+00    
           5.30155540e-01     5.08752882e-01     0.00000000e+00    
           5.31043947e-01     5.07171214e-01     0.00000000e+00    
           5.32303810e-01     5.05865932e-01     0.00000000e+00    
           4.68517244e-01     5.32760799e-01     0.00000000e+00    
           4.68509018e-01     5.30844629e-01     0.00000000e+00    
           4.68960851e-01     5.28982460e-01     0.00000000e+00    
           4.69846308e-01     5.27283132e-01     0.00000000e+00    
           4.71113682e-01     5.25845945e-01     0.00000000e+00    
           4.72688884e-01     5.24754822e-01     0.00000000e+00    
           4.74479854e-01     5.24073541e-01     0.00000000e+00    
           4.78284091e-01     5.24073601e-01     0.00000000e+00    
           4.80075032e-01     5.24754822e-01     0.00000000e+00    
           4.81650203e-01     5.25845885e-01     0.00000000e+00    
           4.82917547e-01     5.27283013e-01     0.00000000e+00    
           4.83803004e-01     5.28982282e-01     0.00000000e+00    
           4.84254897e-01     5.30844331e-01     0.00000000e+00    
           4.84246761e-01     5.32760441e-01     0.00000000e+00    
           4.82887864e-01     4.67691004e-01     0.00000000e+00    
           4.81620818e-01     4.69110936e-01     0.00000000e+00    
           4.80051905e-01     4.70188022e-01     0.00000000e+00    
           4.78271484e-01     4.70860153e-01     0.00000000e+00    
           4.76382166e-01     4.71088618e-01     0.00000000e+00    
           4.74492878e-01     4.70860243e-01     0.00000000e+00    
           4.72712427e-01     4.70188200e-01     0.00000000e+00    
           4.71143454e-01     4.69111174e-01     0.00000000e+00    
           4.69876349e-01     4.67691302e-01     0.00000000e+00    
           4.88103986e-01     5.33086061e-01     0.00000000e+00    
           4.87431526e-01     5.31323195e-01     0.00000000e+00    
           4.87231195e-01     5.29447019e-01     0.00000000e+00    
           4.87516224e-01     5.27581930e-01     0.00000000e+00    
           4.88267750e-01     5.25851250e-01     0.00000000e+00    
           4.89436030e-01     5.24369657e-01     0.00000000e+00    
           4.90943670e-01     5.23235261e-01     0.00000000e+00    
           4.92690891e-01     5.22523046e-01     0.00000000e+00    
           4.96432930e-01     5.22523701e-01     0.00000000e+00    
           4.98180002e-01     5.23235798e-01     0.00000000e+00    
           4.99687493e-01     5.24370134e-01     0.00000000e+00    
           5.00855684e-01     5.25851607e-01     0.00000000e+00    
           5.01607120e-01     5.27582109e-01     0.00000000e+00    
           5.01892149e-01     5.29447079e-01     0.00000000e+00    
           5.01691818e-01     5.31323016e-01     0.00000000e+00    
           5.01019418e-01     5.33085763e-01     0.00000000e+00    
           4.98371124e-01     4.67269689e-01     0.00000000e+00    
           4.96539861e-01     4.68064904e-01     0.00000000e+00    
           4.94562000e-01     4.68336672e-01     0.00000000e+00    
           4.92584139e-01     4.68064904e-01     0.00000000e+00    
           4.90752876e-01     4.67269689e-01     0.00000000e+00    
           5.32269001e-01     4.75995690e-01     0.00000000e+00    
           5.31541944e-01     4.77750987e-01     0.00000000e+00    
           5.30385315e-01     4.79258329e-01     0.00000000e+00    
           5.28877974e-01     4.80414927e-01     0.00000000e+00    
[...]
      <PointData>
        <DataArray type="Float32" Name="Displacement" NumberOfComponents="3">
           1.30382337e-04     3.76443040e-06     0.00000000e+00    
           1.30247659e-04     2.23291590e-05     0.00000000e+00    
           1.43308309e-04    -1.51993959e-06     0.00000000e+00    
           1.20179189e-04    -1.31498348e-06     0.00000000e+00    
           1.32199159e-04    -1.17458485e-05     0.00000000e+00    
           1.20179189e-04    -1.31498348e-06     0.00000000e+00    
           1.43308309e-04    -1.51993959e-06     0.00000000e+00    
           1.96046705e-04    -1.22803276e-05     0.00000000e+00    
           1.96327543e-04     1.42315330e-05     0.00000000e+00    
           1.71801788e-04     1.69540124e-06     0.00000000e+00    
          -3.67246412e-06     1.42315330e-05     0.00000000e+00    
          -3.95329653e-06    -1.22803276e-05     0.00000000e+00    
           1.85199300e-04    -1.21083922e-05     0.00000000e+00    
           1.86305406e-04    -3.41607984e-06     0.00000000e+00    
           1.70136787e-04    -8.98728103e-06     0.00000000e+00    
          -1.36946001e-05    -3.41607984e-06     0.00000000e+00    
          -1.48007020e-05    -1.21083922e-05     0.00000000e+00    
           3.37382080e-05    -2.28025397e-06     0.00000000e+00    
           3.28012757e-05     1.91287854e-05     0.00000000e+00    
           1.57885443e-04    -3.70065027e-06     0.00000000e+00    
           1.79482973e-04    -3.94785002e-06     0.00000000e+00    
           1.69060353e-04     1.96062592e-05     0.00000000e+00    
           1.79482973e-04    -3.94785002e-06     0.00000000e+00    
           1.57885443e-04    -3.70065027e-06     0.00000000e+00    
           1.49456813e-04    -1.63394980e-05     0.00000000e+00    
           1.47854036e-04     8.93085871e-06     0.00000000e+00    
           1.74411238e-04     8.33761078e-06     0.00000000e+00    
           1.74968038e-04     1.74006382e-05     0.00000000e+00    
           6.18121994e-05    -2.12525856e-06     0.00000000e+00    
           5.91409407e-05     7.79258426e-06     0.00000000e+00    
           4.80046983e-05     1.08482382e-05     0.00000000e+00    
           3.41203122e-05     1.02627473e-05     0.00000000e+00    
           4.24384743e-05    -4.69962788e-06     0.00000000e+00    
           3.41203122e-05     1.02627473e-05     0.00000000e+00    
           4.80046983e-05     1.08482382e-05     0.00000000e+00    
           9.50422254e-05    -1.04920018e-05     0.00000000e+00    
           9.49434470e-05     6.35329707e-06     0.00000000e+00    
           4.81390780e-05    -8.49223761e-06     0.00000000e+00    
           4.50881053e-05     2.97162114e-06     0.00000000e+00    
           9.29756789e-05    -2.44879857e-07     0.00000000e+00    
           9.48984816e-05     5.78337131e-06     0.00000000e+00    
           1.09008623e-04    -7.24772644e-06     0.00000000e+00    
           1.09277549e-04     1.50504184e-05     0.00000000e+00    
           9.78266471e-05    -4.26619590e-06     0.00000000e+00    
           9.90373737e-05    -1.47170027e-07     0.00000000e+00    
           7.30104293e-05     1.07097526e-06     0.00000000e+00    
           7.24760830e-05     2.27337259e-05     0.00000000e+00    
           1.99999995e-04     0.00000000e+00     0.00000000e+00    
           0.00000000e+00     0.00000000e+00     0.00000000e+00    
           0.00000000e+00     0.00000000e+00     0.00000000e+00    
           1.99999995e-04     0.00000000e+00     0.00000000e+00    
           1.34078538e-04     4.09198901e-06     0.00000000e+00    
           1.37431140e-04     5.21726952e-06     0.00000000e+00    
           1.40209289e-04     6.73717204e-06     0.00000000e+00    
           1.42221747e-04     8.49383377e-06     0.00000000e+00    
           1.43435740e-04     1.05272911e-05     0.00000000e+00    
           1.43944548e-04     1.27324456e-05     0.00000000e+00    
           1.43530691e-04     1.52225502e-05     0.00000000e+00    
           1.42065735e-04     1.77527927e-05     0.00000000e+00    
           1.39716314e-04     1.99105125e-05     0.00000000e+00    
           1.36870920e-04     2.13709882e-05     0.00000000e+00    
           1.33652124e-04     2.21945866e-05     0.00000000e+00    
           1.26855157e-04     2.17132310e-05     0.00000000e+00    
           1.23715290e-04     2.05186097e-05     0.00000000e+00    
           1.21122372e-04     1.89013099e-05     0.00000000e+00    
           1.19263175e-04     1.71140528e-05     0.00000000e+00    
           1.18282085e-04     1.51853064e-05     0.00000000e+00    
           1.18105665e-04     1.32488994e-05     0.00000000e+00    
           1.18453616e-04     1.14432651e-05     0.00000000e+00    
           1.19162854e-04     9.93711546e-06     0.00000000e+00    
           1.20313714e-04     8.56326551e-06     0.00000000e+00    
           1.22936108e-04     6.20450510e-06     0.00000000e+00    
           1.26554587e-04     4.42754344e-06     0.00000000e+00    
           1.19754339e-04    -2.31140825e-06     0.00000000e+00    
           1.19669734e-04    -3.76870230e-06     0.00000000e+00    
           1.20203062e-04    -5.64880474e-06     0.00000000e+00    
           1.21565325e-04    -7.67575511e-06     0.00000000e+00    
           1.23577003e-04    -9.53763265e-06     0.00000000e+00    
           1.26129133e-04    -1.08934073e-05     0.00000000e+00    
           1.29050124e-04    -1.16112406e-05     0.00000000e+00    
           1.35179478e-04    -1.13746237e-05     0.00000000e+00    
           1.37691633e-04    -1.06756306e-05     0.00000000e+00    
           1.39804528e-04    -9.66043535e-06     0.00000000e+00    
           1.41425728e-04    -8.27276835e-06     0.00000000e+00    
           1.42680597e-04    -6.62421189e-06     0.00000000e+00    
           1.43468569e-04    -4.93118796e-06     0.00000000e+00    
           1.43648693e-04    -3.22748383e-06     0.00000000e+00    
           1.41893644e-04     6.15869908e-07     0.00000000e+00    
           1.39271870e-04     2.66712459e-06     0.00000000e+00    
           1.35991562e-04     4.17737465e-06     0.00000000e+00    
           1.32490997e-04     4.76782452e-06     0.00000000e+00    
           1.28872198e-04     4.44083480e-06     0.00000000e+00    
           1.25374121e-04     3.19430615e-06     0.00000000e+00    
           1.22233570e-04     1.08459085e-06     0.00000000e+00    
           1.20829965e-04    -4.46129832e-07     0.00000000e+00    
           1.91587038e-04     1.48543550e-05     0.00000000e+00    
           1.86889301e-04     1.45768709e-05     0.00000000e+00    
           1.82605378e-04     1.35811160e-05     0.00000000e+00    
           1.79009672e-04     1.20138693e-05     0.00000000e+00    
           1.76151298e-04     9.84472445e-06     0.00000000e+00    
           1.73923952e-04     7.24136225e-06     0.00000000e+00    
           1.72414686e-04     4.45055548e-06     0.00000000e+00    
           1.71915322e-04    -9.65455342e-07     0.00000000e+00    
           1.73060864e-04    -3.84609939e-06     0.00000000e+00    
           1.75495297e-04    -7.04173272e-06     0.00000000e+00    
           1.78950781e-04    -1.00137131e-05     0.00000000e+00    
           1.82884760e-04    -1.20960876e-05     0.00000000e+00    
           1.87055353e-04    -1.31099014e-05     0.00000000e+00    
           1.91496205e-04    -1.31578909e-05     0.00000000e+00    
           3.70208994e-07    -1.04969467e-05     0.00000000e+00    
           4.06330128e-06    -8.03841067e-06     0.00000000e+00    
           6.81335769e-06    -5.25338373e-06     0.00000000e+00    
           8.51201276e-06    -2.48501283e-06     0.00000000e+00    
           9.14929205e-06     4.26729571e-07     0.00000000e+00    
           8.93669039e-06     3.35430764e-06     0.00000000e+00    
           7.26721055e-06     6.78835158e-06     0.00000000e+00    
           4.35730999e-06     1.00711568e-05     0.00000000e+00    
           5.94510198e-07     1.26232389e-05     0.00000000e+00    
           1.84383025e-04    -2.43359386e-06     0.00000000e+00    
           1.82157251e-04    -1.91990853e-06     0.00000000e+00    
           1.79644543e-04    -1.88100410e-06     0.00000000e+00    
           1.76896327e-04    -2.35023845e-06     0.00000000e+00    
           1.73974651e-04    -3.55736711e-06     0.00000000e+00    
           1.71569744e-04    -5.35676418e-06     0.00000000e+00    
           1.70266052e-04    -6.96348252e-06     0.00000000e+00    
           1.69906954e-04    -8.04839419e-06     0.00000000e+00    
           1.70722968e-04    -9.99077020e-06     0.00000000e+00    
           1.71710752e-04    -1.09429038e-05     0.00000000e+00    
           1.73101114e-04    -1.17328273e-05     0.00000000e+00    
           1.74731176e-04    -1.23491418e-05     0.00000000e+00    
           1.76483241e-04    -1.26886516e-05     0.00000000e+00    
           1.78455783e-04    -1.29043592e-05     0.00000000e+00    
           1.80622985e-04    -1.29938371e-05     0.00000000e+00    
           1.82979740e-04    -1.27711446e-05     0.00000000e+00    
          -1.28733273e-05    -1.09761113e-05     0.00000000e+00    
          -1.14863187e-05    -9.56539225e-06     0.00000000e+00    
          -1.08026779e-05    -8.05091804e-06     0.00000000e+00    
          -1.09889679e-05    -6.41568022e-06     0.00000000e+00    
          -1.20167369e-05    -4.82590531e-06     0.00000000e+00    
           3.72638569e-05    -1.56449642e-06     0.00000000e+00    
           4.00964382e-05    -6.13348107e-07     0.00000000e+00    
           4.24848040e-05     3.59460387e-07     0.00000000e+00    
           4.46294362e-05     1.95703183e-06     0.00000000e+00    
           4.62994467e-05     4.04476577e-06     0.00000000e+00    
           4.72795800e-05     6.41948964e-06     0.00000000e+00    
           4.75187480e-05     8.96448546e-06     0.00000000e+00    
           4.64969671e-05     1.17299451e-05     0.00000000e+00    
           4.40626354e-05     1.46765051e-05     0.00000000e+00    
           4.06718536e-05     1.71392767e-05     0.00000000e+00    
           3.68238725e-05     1.86481720e-05     0.00000000e+00    
           2.88302399e-05     1.87810583e-05     0.00000000e+00    
           2.51421516e-05     1.76444992e-05     0.00000000e+00    
           2.20179154e-05     1.58701368e-05     0.00000000e+00    
           1.96851979e-05     1.35701093e-05     0.00000000e+00    
           1.82870990e-05     1.08903205e-05     0.00000000e+00    
           1.78468072e-05     7.94664084e-06     0.00000000e+00    
           1.84689579e-05     4.84554221e-06     0.00000000e+00    
           2.02196552e-05     1.94942231e-06     0.00000000e+00    
           2.27755427e-05    -3.22593365e-07     0.00000000e+00    
           2.60491797e-05    -1.82933354e-06     0.00000000e+00    
           2.98464511e-05    -2.53209942e-06     0.00000000e+00    
           1.82171614e-04    -1.90689309e-06     0.00000000e+00    
           1.84215707e-04     6.99022053e-07     0.00000000e+00    
           1.85534693e-04     3.78333334e-06     0.00000000e+00    
           1.85747573e-04     7.25279233e-06     0.00000000e+00    
           1.84669130e-04     1.08609656e-05     0.00000000e+00    
           1.82552438e-04     1.40910288e-05     0.00000000e+00    
           1.79669179e-04     1.66263308e-05     0.00000000e+00    
           1.76368252e-04     1.83956327e-05     0.00000000e+00    
           1.72858126e-04     1.93504020e-05     0.00000000e+00    
           1.64936937e-04     1.91197269e-05     0.00000000e+00    
           1.60812007e-04     1.77895417e-05     0.00000000e+00    
           1.57199000e-04     1.57767226e-05     0.00000000e+00    
           1.54478432e-04     1.33305693e-05     0.00000000e+00    
           1.52820401e-04     1.05536374e-05     0.00000000e+00    
           1.51976710e-04     7.64368906e-06     0.00000000e+00    
           1.51897970e-04     4.68474718e-06     0.00000000e+00    
           1.52568493e-04     1.87370279e-06     0.00000000e+00    
           1.54484456e-04    -9.73185706e-07     0.00000000e+00    
           1.61558375e-04    -5.57156272e-06     0.00000000e+00    
           1.65519654e-04    -6.56271413e-06     0.00000000e+00    
           1.69507824e-04    -6.72939404e-06     0.00000000e+00    
           1.73271706e-04    -6.18555077e-06     0.00000000e+00    
           1.76617366e-04    -5.19809737e-06     0.00000000e+00    
           1.53698988e-04    -1.57351642e-05     0.00000000e+00    
           1.57809001e-04    -1.41313822e-05     0.00000000e+00    
           1.61490272e-04    -1.18669677e-05     0.00000000e+00    
           1.63844554e-04    -9.41386043e-06     0.00000000e+00    
           1.65152975e-04    -7.30316106e-06     0.00000000e+00    
           1.65610283e-04    -5.28178907e-06     0.00000000e+00    
           1.65548801e-04    -3.10025098e-06     0.00000000e+00    
           1.64948913e-04    -6.43168846e-07     0.00000000e+00    
           1.63113436e-04     2.13901058e-06     0.00000000e+00    
           1.60055512e-04     5.06918332e-06     0.00000000e+00    
           1.56226073e-04     7.31669343e-06     0.00000000e+00    
           1.52098350e-04     8.55636699e-06     0.00000000e+00    
           1.43886267e-04     8.51817185e-06     0.00000000e+00    
           1.40514734e-04     7.53285485e-06     0.00000000e+00    
           1.37667506e-04     6.27960344e-06     0.00000000e+00    
           1.35231356e-04     4.36698883e-06     0.00000000e+00    
           1.33311900e-04     1.95640496e-06     0.00000000e+00    
           1.32016808e-04    -7.83492112e-07     0.00000000e+00    
           1.31743247e-04    -3.84833129e-06     0.00000000e+00    
           1.32724439e-04    -7.04975128e-06     0.00000000e+00    
           1.34806382e-04    -1.01726600e-05     0.00000000e+00    
           1.37739102e-04    -1.28601187e-05     0.00000000e+00    
           1.41280761e-04    -1.48229765e-05     0.00000000e+00    
           1.45249214e-04    -1.60102391e-05     0.00000000e+00    
           1.76704067e-04     8.52855374e-06     0.00000000e+00    
           1.78928487e-04     9.15394230e-06     0.00000000e+00    
           1.80773888e-04     1.01591158e-05     0.00000000e+00    
           1.81968106e-04     1.14143368e-05     0.00000000e+00    
           1.82426083e-04     1.27591620e-05     0.00000000e+00    
           1.82189324e-04     1.40984621e-05     0.00000000e+00    
           1.81355397e-04     1.53051005e-05     0.00000000e+00    
           1.80066374e-04     1.62658598e-05     0.00000000e+00    
           1.78453090e-04     1.69293489e-05     0.00000000e+00    
           1.76790141e-04     1.71732954e-05     0.00000000e+00    
           1.73003369e-04     1.75789755e-05     0.00000000e+00    
           1.70930580e-04     1.74514589e-05     0.00000000e+00    
           1.69042018e-04     1.69368814e-05     0.00000000e+00    
           1.67468257e-04     1.61478674e-05     0.00000000e+00    
           1.66454221e-04     1.48844683e-05     0.00000000e+00    
           1.66223763e-04     1.32573441e-05     0.00000000e+00    
           1.66976170e-04     1.14123086e-05     0.00000000e+00    
           1.68504994e-04     9.84795770e-06     0.00000000e+00    
           1.70250016e-04     8.90245428e-06     0.00000000e+00    
           1.72174463e-04     8.48800300e-06     0.00000000e+00    
           6.42655432e-05    -1.81266807e-06     0.00000000e+00    
           6.62439707e-05    -1.71028125e-06     0.00000000e+00    
           6.79665245e-05    -1.41894645e-06     0.00000000e+00    
           6.97851792e-05    -4.69370121e-07     0.00000000e+00    
           7.12898036e-05     1.23944903e-06     0.00000000e+00    
           7.17628864e-05     3.04551236e-06     0.00000000e+00    
           7.09352898e-05     4.67665677e-06     0.00000000e+00    
           6.93075053e-05     6.13451220e-06     0.00000000e+00    
           6.72161914e-05     7.08921789e-06     0.00000000e+00    
           6.47868728e-05     7.72721069e-06     0.00000000e+00    
           6.19908096e-05     8.04596402e-06     0.00000000e+00    
           5.66908748e-05     7.30208239e-06     0.00000000e+00    
           5.50221557e-05     6.79798541e-06     0.00000000e+00    
           5.39294560e-05     6.26009023e-06     0.00000000e+00    
           5.29198296e-05     5.36034759e-06     0.00000000e+00    
           5.21672664e-05     4.17942601e-06     0.00000000e+00    
           5.18342131e-05     2.83385043e-06     0.00000000e+00    
           5.22187329e-05     1.42369265e-06     0.00000000e+00    
           5.32300073e-05     7.82802800e-08     0.00000000e+00    
           5.48489552e-05    -1.00960665e-06     0.00000000e+00    
           5.69146687e-05    -1.82468852e-06     0.00000000e+00    
           5.93211334e-05    -2.19967978e-06     0.00000000e+00    
           3.22347732e-05     9.51799939e-06     0.00000000e+00    
           3.04924015e-05     8.40592384e-06     0.00000000e+00    
           2.92284803e-05     6.83136477e-06     0.00000000e+00    
           2.85377246e-05     4.88546038e-06     0.00000000e+00    
           2.88569026e-05     2.60040815e-06     0.00000000e+00    
           3.06450056e-05    -1.16685200e-07     0.00000000e+00    
           3.33108073e-05    -2.42075862e-06     0.00000000e+00    
           3.63980544e-05    -3.92453785e-06     0.00000000e+00    
           3.95196657e-05    -4.61111858e-06     0.00000000e+00    
           4.49288709e-05    -4.55966347e-06     0.00000000e+00    
           4.71738604e-05    -4.14815258e-06     0.00000000e+00    
           4.93754815e-05    -3.17324225e-06     0.00000000e+00    
           5.13376908e-05    -1.64284836e-06     0.00000000e+00    
           5.28511737e-05     4.74690154e-07     0.00000000e+00    
           5.34429710e-05     2.87761441e-06     0.00000000e+00    
           5.31658625e-05     5.29237332e-06     0.00000000e+00    
           5.20982176e-05     7.55162091e-06     0.00000000e+00    
           5.03259253e-05     9.44011026e-06     0.00000000e+00    
           4.51437554e-05     1.17649170e-05     0.00000000e+00    
           4.20479009e-05     1.18511389e-05     0.00000000e+00    
           3.90004279e-05     1.14560571e-05     0.00000000e+00    
           3.63280633e-05     1.07029909e-05     0.00000000e+00    
           9.76446390e-05    -1.00183534e-05     0.00000000e+00    
           9.98406977e-05    -9.38224912e-06     0.00000000e+00    
           1.01837533e-04    -8.39720269e-06     0.00000000e+00    
           1.03639490e-04    -6.99311340e-06     0.00000000e+00    
           1.05000887e-04    -5.33463026e-06     0.00000000e+00    
           1.05656967e-04    -3.43276770e-06     0.00000000e+00    
           1.05526378e-04    -1.30583999e-06     0.00000000e+00    
           1.04507017e-04     9.84267785e-07     0.00000000e+00    
           1.02751103e-04     3.11452891e-06     0.00000000e+00    
           1.00556397e-04     4.70923487e-06     0.00000000e+00    
           9.79283577e-05     5.75323838e-06     0.00000000e+00    
           9.18364967e-05     6.32053843e-06     0.00000000e+00    
           8.88962604e-05     5.67592087e-06     0.00000000e+00    
           8.62834786e-05     4.40469876e-06     0.00000000e+00    
           8.42343725e-05     2.52464542e-06     0.00000000e+00    
           8.28780612e-05     2.34241696e-07     0.00000000e+00    
           8.24325180e-05    -2.28552722e-06     0.00000000e+00    
           8.29540295e-05    -4.74590070e-06     0.00000000e+00    
           8.43141461e-05    -6.84803899e-06     0.00000000e+00    
           8.64013928e-05    -8.58200292e-06     0.00000000e+00    