<?xml version="1.0"?>
<VTKFile type="UnstructuredGrid" version="0.1">
  <UnstructuredGrid>
    <Piece NumberOfPoints="1034" NumberOfCells="1614">
      <Points>
        <DataArray type="Float32" NumberOfComponents="3">
           5.21582007e-01     5.11657000e-01     0.00000000e+00    
           5.07319987e-01     5.11657000e-01     0.00000000e+00    
           4.65243995e-01     5.17907977e-01     0.00000000e+00    
           4.65243995e-01     5.04921973e-01     0.00000000e+00    
           4.75246996e-01     5.11415005e-01     0.00000000e+00    
           5.33852994e-01     5.04921973e-01     0.00000000e+00    
           5.33852994e-01     5.17907977e-01     0.00000000e+00    
           4.83779997e-01     5.34618974e-01     0.00000000e+00    
           4.68984991e-01     5.34618974e-01     0.00000000e+00    
           4.76381987e-01     5.23841977e-01     0.00000000e+00    
           4.68984991e-01     4.66010004e-01     0.00000000e+00    
           4.83779997e-01     4.66010004e-01     0.00000000e+00    
           4.99920011e-01     5.34618974e-01     0.00000000e+00    
           4.89203990e-01     5.34618974e-01     0.00000000e+00    
           4.94562000e-01     5.22280991e-01     0.00000000e+00    
           4.89203990e-01     4.66010004e-01     0.00000000e+00    
           4.99920011e-01     4.66010004e-01     0.00000000e+00    
           5.32517016e-01     4.74112004e-01     0.00000000e+00    
           5.17961025e-01     4.74112004e-01     0.00000000e+00    
           5.33852994e-01     5.19801974e-01     0.00000000e+00    
           5.33852994e-01     5.29603004e-01     0.00000000e+00    
           5.19536972e-01     5.24702013e-01     0.00000000e+00    
           4.65243995e-01     5.29603004e-01     0.00000000e+00    
           4.65243995e-01     5.19801974e-01     0.00000000e+00    
           4.92487997e-01     5.17117977e-01     0.00000000e+00    
           4.76904988e-01     5.17117977e-01     0.00000000e+00    
           5.17996013e-01     5.27033985e-01     0.00000000e+00    
           5.04473984e-01     5.27033985e-01     0.00000000e+00    
           5.08446991e-01     4.83435005e-01     0.00000000e+00    
           4.94414002e-01     4.83435005e-01     0.00000000e+00    
           4.65243995e-01     4.83101994e-01     0.00000000e+00    
           4.65243995e-01     4.74415004e-01     0.00000000e+00    
           4.78336990e-01     4.78758007e-01     0.00000000e+00    
           5.33852994e-01     4.74415004e-01     0.00000000e+00    
           5.33852994e-01     4.83101994e-01     0.00000000e+00    
           4.80668008e-01     4.95810986e-01     0.00000000e+00    
           4.66084987e-01     4.95810986e-01     0.00000000e+00    
           4.93930012e-01     4.79214013e-01     0.00000000e+00    
           4.78967011e-01     4.79214013e-01     0.00000000e+00    
           5.09284973e-01     4.97658014e-01     0.00000000e+00    
           4.95503992e-01     4.97658014e-01     0.00000000e+00    
           5.33011973e-01     5.01751006e-01     0.00000000e+00    
           5.17829001e-01     5.01751006e-01     0.00000000e+00    
           4.95451003e-01     5.00564992e-01     0.00000000e+00    
           4.80922014e-01     5.00564992e-01     0.00000000e+00    
           5.25367022e-01     4.88312006e-01     0.00000000e+00    
           5.09521008e-01     4.88312006e-01     0.00000000e+00    
           4.65243995e-01     5.34618974e-01     0.00000000e+00    
           4.65243995e-01     4.66010004e-01     0.00000000e+00    
           5.33852994e-01     4.66010004e-01     0.00000000e+00    
           5.33852994e-01     5.34618974e-01     0.00000000e+00    
           5.21338999e-01     5.13502657e-01     0.00000000e+00    
           5.20626605e-01     5.15222490e-01     0.00000000e+00    
           5.19493401e-01     5.16699374e-01     0.00000000e+00    
           5.18016517e-01     5.17832637e-01     0.00000000e+00    
           5.16296625e-01     5.18545032e-01     0.00000000e+00    
           5.14451027e-01     5.18787980e-01     0.00000000e+00    
           5.12605369e-01     5.18545032e-01     0.00000000e+00    
           5.10885477e-01     5.17832637e-01     0.00000000e+00    
           5.09408593e-01     5.16699374e-01     0.00000000e+00    
           5.08275390e-01     5.15222490e-01     0.00000000e+00    
           5.07562995e-01     5.13502657e-01     0.00000000e+00    
           5.07562995e-01     5.09811342e-01     0.00000000e+00    
           5.08275390e-01     5.08091509e-01     0.00000000e+00    
           5.09408593e-01     5.06614625e-01     0.00000000e+00    
           5.10885477e-01     5.05481362e-01     0.00000000e+00    
           5.12605369e-01     5.04768968e-01     0.00000000e+00    
           5.14451027e-01     5.04526019e-01     0.00000000e+00    
           5.16296625e-01     5.04768968e-01     0.00000000e+00    
           5.18016517e-01     5.05481362e-01     0.00000000e+00    
           5.19493401e-01     5.06614625e-01     0.00000000e+00    
           5.20626605e-01     5.08091509e-01     0.00000000e+00    
           5.21338999e-01     5.09811342e-01     0.00000000e+00    
           4.66931671e-01     5.04409373e-01     0.00000000e+00    
           4.68693614e-01     5.04328012e-01     0.00000000e+00    
           4.70421344e-01     5.04682958e-01     0.00000000e+00    
           4.72008497e-01     5.05452335e-01     0.00000000e+00    
           4.73357379e-01     5.06588817e-01     0.00000000e+00    
           4.74384934e-01     5.08022368e-01     0.00000000e+00    
           4.75027919e-01     5.09664834e-01     0.00000000e+00    
           4.75028187e-01     5.13165236e-01     0.00000000e+00    
           4.74385172e-01     5.14807761e-01     0.00000000e+00    
           4.73357558e-01     5.16241372e-01     0.00000000e+00    
           4.72008646e-01     5.17377913e-01     0.00000000e+00    
           4.70421433e-01     5.18147290e-01     0.00000000e+00    
           4.68693614e-01     5.18502235e-01     0.00000000e+00    
           4.66931641e-01     5.18420875e-01     0.00000000e+00    
           5.32303810e-01     5.16964078e-01     0.00000000e+00    
           5.31043947e-01     5.15658796e-01     0.00000000e+00    
           5.30155540e-01     5.14077127e-01     0.00000000e+00    
           5.29696345e-01     5.12322068e-01     0.00000000e+00    
           5.29696345e-01     5.10507941e-01     0.00000000e+00    
           5.30155540e-01     5.08752882e-01     0.00000000e+00    
           5.31043947e-01     5.07171214e-01     0.00000000e+00    
           5.32303810e-01     5.05865932e-01     0.00000000e+00    
           4.68517244e-01     5.32760799e-01     0.00000000e+00    
           4.68509018e-01     5.30844629e-01     0.00000000e+00    
           4.68960851e-01     5.28982460e-01     0.00000000e+00    
           4.69846308e-01     5.27283132e-01     0.00000000e+00    
           4.71113682e-01     5.25845945e-01     0.00000000e+00    
           4.72688884e-01     5.24754822e-01     0.00000000e+00    
           4.74479854e-01     5.24073541e-01     0.00000000e+00    
           4.78284091e-01     5.24073601e-01     0.00000000e+00    
           4.80075032e-01     5.24754822e-01     0.00000000e+00    
           4.81650203e-01     5.25845885e-01     0.00000000e+00    
           4.82917547e-01     5.27283013e-01     0.00000000e+00    
           4.83803004e-01     5.28982282e-01     0.00000000e+00    
           4.84254897e-01     5.30844331e-01     0.00000000e+00    
           4.84246761e-01     5.32760441e-01     0.00000000e+00    
           4.82887864e-01     4.67691004e-01     0.00000000e+00    
           4.81620818e-01     4.69110936e-01     0.00000000e+00    
           4.80051905e-01     4.70188022e-01     0.00000000e+00    
           4.78271484e-01     4.70860153e-01     0.00000000e+00    
           4.76382166e-01     4.71088618e-01     0.00000000e+00    
           4.74492878e-01     4.70860243e-01     0.00000000e+00    
           4.72712427e-01     4.70188200e-01     0.00000000e+00    
           4.71143454e-01     4.69111174e-01     0.00000000e+00    
           4.69876349e-01     4.67691302e-01     0.00000000e+00    
           4.88103986e-01     5.33086061e-01     0.00000000e+00    
           4.87431526e-01     5.31323195e-01     0.00000000e+00    
           4.87231195e-01     5.29447019e-01     0.00000000e+00    
           4.87516224e-01     5.27581930e-01     0.00000000e+00    
           4.88267750e-01     5.25851250e-01     0.00000000e+00    
           4.89436030e-01     5.24369657e-01     0.00000000e+00    
           4.90943670e-01     5.23235261e-01     0.00000000e+00    
           4.92690891e-01     5.22523046e-01     0.00000000e+00    
           4.96432930e-01     5.22523701e-01     0.00000000e+00    
           4.98180002e-01     5.23235798e-01     0.00000000e+00    
           4.99687493e-01     5.24370134e-01     0.00000000e+00    
           5.00855684e-01     5.25851607e-01     0.00000000e+00    
           5.01607120e-01     5.27582109e-01     0.00000000e+00    
           5.01892149e-01     5.29447079e-01     0.00000000e+00    
           5.01691818e-01     5.31323016e-01     0.00000000e+00    
           5.01019418e-01     5.33085763e-01     0.00000000e+00    
           4.98371124e-01     4.67269689e-01     0.00000000e+00    
           4.96539861e-01     4.68064904e-01     0.00000000e+00    
           4.94562000e-01     4.68336672e-01     0.00000000e+00    
           4.92584139e-01     4.68064904e-01     0.00000000e+00    
           4.90752876e-01     4.67269689e-01     0.00000000e+00    
           5.32269001e-01     4.75995690e-01     0.00000000e+00    
           5.31541944e-01     4.77750987e-01     0.00000000e+00    
           5.30385315e-01     4.79258329e-01     0.00000000e+00    
           5.28877974e-01     4.80414927e-01     0.00000000e+00    
[...]
      <PointData>
        <DataArray type="Float32" Name="Displacement" NumberOfComponents="3">
           2.78309366e-04     8.05753734e-06     0.00000000e+00    
           2.78042455e-04     4.77558060e-05     0.00000000e+00    
           3.06064554e-04    -2.50703602e-06     0.00000000e+00    
           2.56607629e-04    -1.81121948e-06     0.00000000e+00    
           2.82129331e-04    -2.50151243e-05     0.00000000e+00    
           2.56607629e-04    -1.81121948e-06     0.00000000e+00    
           3.06064554e-04    -2.50703602e-06     0.00000000e+00    
           4.16243303e-04    -2.58663658e-05     0.00000000e+00    
           4.16937255e-04     3.01223263e-05     0.00000000e+00    
           3.65326938e-04     3.61208890e-06     0.00000000e+00    
          -8.06273874e-06     3.01223263e-05     0.00000000e+00    
          -8.75670321e-06    -2.58663658e-05     0.00000000e+00    
           3.94007511e-04    -2.45865558e-05     0.00000000e+00    
           3.96240357e-04    -6.98143640e-06     0.00000000e+00    
           3.63151135e-04    -1.82539006e-05     0.00000000e+00    
          -2.87596431e-05    -6.98143640e-06     0.00000000e+00    
          -3.09924835e-05    -2.45865558e-05     0.00000000e+00    
           7.11847097e-05    -6.00439944e-06     0.00000000e+00    
           6.93905458e-05     4.11408182e-05     0.00000000e+00    
           3.36190569e-04    -7.65667028e-06     0.00000000e+00    
           3.81773891e-04    -8.37119387e-06     0.00000000e+00    
           3.59796453e-04     4.16854200e-05     0.00000000e+00    
           3.81773891e-04    -8.37119387e-06     0.00000000e+00    
           3.36190569e-04    -7.65667028e-06     0.00000000e+00    
           3.18358972e-04    -3.49026377e-05     0.00000000e+00    
           3.15210054e-04     1.93113428e-05     0.00000000e+00    
           3.71161499e-04     1.79208855e-05     0.00000000e+00    
           3.72397510e-04     3.71786045e-05     0.00000000e+00    
           1.30517335e-04    -5.21831589e-06     0.00000000e+00    
           1.25557373e-04     1.73077169e-05     0.00000000e+00    
           1.02443941e-04     2.45229676e-05     0.00000000e+00    
           7.15055357e-05     2.34520085e-05     0.00000000e+00    
           8.97542632e-05    -1.07465603e-05     0.00000000e+00    
           7.15055357e-05     2.34520085e-05     0.00000000e+00    
           1.02443941e-04     2.45229676e-05     0.00000000e+00    
           2.03041272e-04    -2.26531029e-05     0.00000000e+00    
           2.02951385e-04     1.39614531e-05     0.00000000e+00    
           1.01330967e-04    -2.00710911e-05     0.00000000e+00    
           9.54888383e-05     6.62936282e-06     0.00000000e+00    
           1.99031405e-04     7.52810024e-07     0.00000000e+00    
           2.03033153e-04     1.12679463e-05     0.00000000e+00    
           2.33254512e-04    -1.49749922e-05     0.00000000e+00    
           2.33899438e-04     3.14992940e-05     0.00000000e+00    
           2.09176389e-04    -1.01351425e-05     0.00000000e+00    
           2.11759747e-04    -2.79292124e-07     0.00000000e+00    
           1.54970956e-04     2.70052897e-06     0.00000000e+00    
           1.54088964e-04     4.97881992e-05     0.00000000e+00    
           4.25000006e-04     0.00000000e+00     0.00000000e+00    
           0.00000000e+00     0.00000000e+00     0.00000000e+00    
           0.00000000e+00     0.00000000e+00     0.00000000e+00    
           4.25000006e-04     0.00000000e+00     0.00000000e+00    
           2.86108057e-04     8.75035767e-06     0.00000000e+00    
           2.93154240e-04     1.10854062e-05     0.00000000e+00    
           2.99026753e-04     1.43065981e-05     0.00000000e+00    
           3.03335022e-04     1.80889001e-05     0.00000000e+00    
           3.05965397e-04     2.24883261e-05     0.00000000e+00    
           3.07069451e-04     2.72329944e-05     0.00000000e+00    
           3.06193542e-04     3.25643305e-05     0.00000000e+00    
           3.03081906e-04     3.79660851e-05     0.00000000e+00    
           2.98096798e-04     4.25671751e-05     0.00000000e+00    
           2.92060984e-04     4.56843081e-05     0.00000000e+00    
           2.85240880e-04     4.74462722e-05     0.00000000e+00    
           2.70894845e-04     4.65036937e-05     0.00000000e+00    
           2.64276081e-04     4.40692529e-05     0.00000000e+00    
           2.58784741e-04     4.06795880e-05     0.00000000e+00    
           2.54801562e-04     3.68321962e-05     0.00000000e+00    
           2.52645492e-04     3.26133122e-05     0.00000000e+00    
           2.52237602e-04     2.83694371e-05     0.00000000e+00    
           2.52984610e-04     2.44190142e-05     0.00000000e+00    
           2.54512270e-04     2.11272327e-05     0.00000000e+00    
           2.56971660e-04     1.81585492e-05     0.00000000e+00    
           2.62531044e-04     1.31874240e-05     0.00000000e+00    
           2.70204968e-04     9.44819749e-06     0.00000000e+00    
           2.55594205e-04    -4.18788886e-06     0.00000000e+00    
           2.55399500e-04    -7.47828972e-06     0.00000000e+00    
           2.56548345e-04    -1.16236952e-05     0.00000000e+00    
           2.59466236e-04    -1.60482086e-05     0.00000000e+00    
           2.63780734e-04    -2.00940431e-05     0.00000000e+00    
           2.69231881e-04    -2.30429359e-05     0.00000000e+00    
           2.75458238e-04    -2.46367290e-05     0.00000000e+00    
           2.88511888e-04    -2.42994993e-05     0.00000000e+00    
           2.93994119e-04    -2.27379078e-05     0.00000000e+00    
           2.98618106e-04    -2.04267708e-05     0.00000000e+00    
           3.02144937e-04    -1.73126155e-05     0.00000000e+00    
           3.04834102e-04    -1.36719200e-05     0.00000000e+00    
           3.06498201e-04    -9.94429774e-06     0.00000000e+00    
           3.06843489e-04    -6.21523441e-06     0.00000000e+00    
           3.03018402e-04     2.08925189e-06     0.00000000e+00    
           2.97417922e-04     6.50575976e-06     0.00000000e+00    
           2.90423690e-04     9.76843421e-06     0.00000000e+00    
           2.82968802e-04     1.10699903e-05     0.00000000e+00    
           2.75301252e-04     1.04268593e-05     0.00000000e+00    
           2.67946889e-04     7.91890579e-06     0.00000000e+00    
           2.61349487e-04     3.67936241e-06     0.00000000e+00    
           2.58212764e-04     3.30597828e-07     0.00000000e+00    
           4.07021726e-04     3.14728240e-05     0.00000000e+00    
           3.97203286e-04     3.09849020e-05     0.00000000e+00    
           3.88164655e-04     2.89334548e-05     0.00000000e+00    
           3.80513316e-04     2.55643718e-05     0.00000000e+00    
           3.74448486e-04     2.09158225e-05     0.00000000e+00    
           3.69758432e-04     1.53676119e-05     0.00000000e+00    
           3.66597174e-04     9.44896783e-06     0.00000000e+00    
           3.65593383e-04    -2.01707144e-06     0.00000000e+00    
           3.68031411e-04    -8.10472375e-06     0.00000000e+00    
           3.73178656e-04    -1.48475501e-05     0.00000000e+00    
           3.80469603e-04    -2.11053066e-05     0.00000000e+00    
           3.88747372e-04    -2.54849019e-05     0.00000000e+00    
           3.97488009e-04    -2.76049996e-05     0.00000000e+00    
           4.06765670e-04    -2.76987012e-05     0.00000000e+00    
           2.14994913e-07    -2.21806968e-05     0.00000000e+00    
           7.87546924e-06    -1.70974145e-05     0.00000000e+00    
           1.36355766e-05    -1.12691678e-05     0.00000000e+00    
           1.73095705e-05    -5.40233032e-06     0.00000000e+00    
           1.87434798e-05     8.32413718e-07     0.00000000e+00    
           1.83343909e-05     7.07923164e-06     0.00000000e+00    
           1.48462614e-05     1.43814132e-05     0.00000000e+00    
           8.74666694e-06     2.13348358e-05     0.00000000e+00    
           8.67859512e-07     2.67219184e-05     0.00000000e+00    
           3.92287824e-04    -4.97628434e-06     0.00000000e+00    
           3.87725566e-04    -3.94364133e-06     0.00000000e+00    
           3.82591825e-04    -3.87765249e-06     0.00000000e+00    
           3.77000979e-04    -4.84639349e-06     0.00000000e+00    
           3.71105649e-04    -7.27158795e-06     0.00000000e+00    
           3.66308406e-04    -1.08137456e-05     0.00000000e+00    
           3.63638363e-04    -1.40314269e-05     0.00000000e+00    
           3.62784136e-04    -1.62658453e-05     0.00000000e+00    
           3.64324282e-04    -2.03158488e-05     0.00000000e+00    
           3.66352237e-04    -2.22454746e-05     0.00000000e+00    
           3.69201240e-04    -2.38303674e-05     0.00000000e+00    
           3.72539216e-04    -2.50651119e-05     0.00000000e+00    
           3.76118638e-04    -2.57337597e-05     0.00000000e+00    
           3.80152720e-04    -2.61676505e-05     0.00000000e+00    
           3.84610059e-04    -2.63543043e-05     0.00000000e+00    
           3.89451947e-04    -2.59189692e-05     0.00000000e+00    
          -2.70492274e-05    -2.23068964e-05     0.00000000e+00    
          -2.42095939e-05    -1.94795648e-05     0.00000000e+00    
          -2.27860619e-05    -1.64467783e-05     0.00000000e+00    
          -2.31631402e-05    -1.31176521e-05     0.00000000e+00    
          -2.52934769e-05    -9.86791747e-06     0.00000000e+00    
           7.89277401e-05    -4.61692525e-06     0.00000000e+00    
           8.52983649e-05    -2.37798145e-06     0.00000000e+00    
           9.05496854e-05     4.15993036e-08     0.00000000e+00    
           9.51538677e-05     3.66495419e-06     0.00000000e+00    
           9.87175881e-05     8.31614580e-06     0.00000000e+00    
           1.00770696e-04     1.35683231e-05     0.00000000e+00    
           1.01205456e-04     1.91667332e-05     0.00000000e+00    
           9.89441105e-05     2.51952442e-05     0.00000000e+00    
           9.36770957e-05     3.15603502e-05     0.00000000e+00    
           8.63627429e-05     3.68666770e-05     0.00000000e+00    
           7.80636910e-05     4.01146535e-05     0.00000000e+00    
           6.08261289e-05     4.03754930e-05     0.00000000e+00    
           5.28790843e-05     3.79027078e-05     0.00000000e+00    
           4.61435811e-05     3.40389488e-05     0.00000000e+00    
           4.10951689e-05     2.90198059e-05     0.00000000e+00    
           3.80437996e-05     2.31611284e-05     0.00000000e+00    
           3.70647140e-05     1.67386661e-05     0.00000000e+00    
           3.83790393e-05     9.98151154e-06     0.00000000e+00    
           4.21246114e-05     3.65620463e-06     0.00000000e+00    
           4.76163987e-05    -1.33054277e-06     0.00000000e+00    
           5.46488918e-05    -4.67264317e-06     0.00000000e+00    
           6.28064299e-05    -6.31329476e-06     0.00000000e+00    
           3.87497043e-04    -3.97690428e-06     0.00000000e+00    
           3.91822978e-04     1.58431874e-06     0.00000000e+00    
           3.94594244e-04     8.14294344e-06     0.00000000e+00    
           3.95022333e-04     1.55116741e-05     0.00000000e+00    
           3.92730464e-04     2.31675949e-05     0.00000000e+00    
           3.88257642e-04     3.00158408e-05     0.00000000e+00    
           3.82171071e-04     3.53860451e-05     0.00000000e+00    
           3.75206262e-04     3.91289468e-05     0.00000000e+00    
           3.67801869e-04     4.11464207e-05     0.00000000e+00    
           3.51116905e-04     4.06704821e-05     0.00000000e+00    
           3.42464540e-04     3.79161320e-05     0.00000000e+00    
           3.34865676e-04     3.37049860e-05     0.00000000e+00    
           3.29096714e-04     2.85117330e-05     0.00000000e+00    
           3.25526460e-04     2.25725253e-05     0.00000000e+00    
           3.23723129e-04     1.63774730e-05     0.00000000e+00    
           3.23557993e-04     1.01117230e-05     0.00000000e+00    
           3.24990804e-04     4.18401396e-06     0.00000000e+00    
           3.29034228e-04    -1.85264139e-06     0.00000000e+00    
           3.43909516e-04    -1.16534202e-05     0.00000000e+00    
           3.52226401e-04    -1.37969619e-05     0.00000000e+00    
           3.60590959e-04    -1.42317067e-05     0.00000000e+00    
           3.68515466e-04    -1.31818970e-05     0.00000000e+00    
           3.75635165e-04    -1.11124155e-05     0.00000000e+00    
           3.27324058e-04    -3.36304947e-05     0.00000000e+00    
           3.35928897e-04    -3.03058932e-05     0.00000000e+00    
           3.43633321e-04    -2.56287985e-05     0.00000000e+00    
           3.48680041e-04    -2.04331300e-05     0.00000000e+00    
           3.51600116e-04    -1.58035091e-05     0.00000000e+00    
           3.52697039e-04    -1.13251863e-05     0.00000000e+00    
           3.52574949e-04    -6.58300496e-06     0.00000000e+00    
           3.51291266e-04    -1.29815055e-06     0.00000000e+00    
           3.47407535e-04     4.65507037e-06     0.00000000e+00    
           3.40946368e-04     1.08997874e-05     0.00000000e+00    
           3.32869415e-04     1.57152153e-05     0.00000000e+00    
           3.24165245e-04     1.84187520e-05     0.00000000e+00    
           3.06773756e-04     1.85009267e-05     0.00000000e+00    
           2.99482985e-04     1.63570439e-05     0.00000000e+00    
           2.93299585e-04     1.35052651e-05     0.00000000e+00    
           2.88102223e-04     9.32956391e-06     0.00000000e+00    
           2.84024660e-04     4.11394785e-06     0.00000000e+00    
           2.81297223e-04    -1.78660537e-06     0.00000000e+00    
           2.80740671e-04    -8.35600167e-06     0.00000000e+00    
           2.82842317e-04    -1.51971299e-05     0.00000000e+00    
           2.87275005e-04    -2.18486948e-05     0.00000000e+00    
           2.93511082e-04    -2.75546881e-05     0.00000000e+00    
           3.01035529e-04    -3.17133054e-05     0.00000000e+00    
           3.09450668e-04    -3.42151943e-05     0.00000000e+00    
           3.75995180e-04     1.83249176e-05     0.00000000e+00    
           3.80675483e-04     1.96394340e-05     0.00000000e+00    
           3.84554034e-04     2.17506549e-05     0.00000000e+00    
           3.87081644e-04     2.43979212e-05     0.00000000e+00    
           3.88085435e-04     2.72559446e-05     0.00000000e+00    
           3.87621112e-04     3.01135951e-05     0.00000000e+00    
           3.85873602e-04     3.26891932e-05     0.00000000e+00    
           3.83156934e-04     3.47443311e-05     0.00000000e+00    
           3.79756733e-04     3.61674829e-05     0.00000000e+00    
           3.76246666e-04     3.66985732e-05     0.00000000e+00    
           3.68213630e-04     3.75271993e-05     0.00000000e+00    
           3.63825733e-04     3.72338000e-05     0.00000000e+00    
           3.59830417e-04     3.61285674e-05     0.00000000e+00    
           3.56505974e-04     3.44486471e-05     0.00000000e+00    
           3.54373420e-04     3.17738959e-05     0.00000000e+00    
           3.53893178e-04     2.83254612e-05     0.00000000e+00    
           3.55489727e-04     2.44148741e-05     0.00000000e+00    
           3.58716672e-04     2.11017323e-05     0.00000000e+00    
           3.62393504e-04     1.91048202e-05     0.00000000e+00    
           3.66445922e-04     1.82351778e-05     0.00000000e+00    
           1.35811337e-04    -4.67503605e-06     0.00000000e+00    
           1.40204575e-04    -4.25931421e-06     0.00000000e+00    
           1.43971702e-04    -3.29717886e-06     0.00000000e+00    
           1.47735656e-04    -9.95821665e-07     0.00000000e+00    
           1.50549720e-04     2.69092175e-06     0.00000000e+00    
           1.51333792e-04     6.34800654e-06     0.00000000e+00    
           1.49977030e-04     9.79699143e-06     0.00000000e+00    
           1.46798237e-04     1.30744065e-05     0.00000000e+00    
           1.42439836e-04     1.52556986e-05     0.00000000e+00    
           1.37355659e-04     1.67475246e-05     0.00000000e+00    
           1.31519657e-04     1.75933710e-05     0.00000000e+00    
           1.20276462e-04     1.64152170e-05     0.00000000e+00    
           1.16461109e-04     1.52258226e-05     0.00000000e+00    
           1.13839145e-04     1.38032583e-05     0.00000000e+00    
           1.11577428e-04     1.16778156e-05     0.00000000e+00    
           1.09940745e-04     9.00250780e-06     0.00000000e+00    
           1.09238936e-04     5.99778150e-06     0.00000000e+00    
           1.10072353e-04     2.86455338e-06     0.00000000e+00    
           1.12254165e-04    -1.04313898e-07     0.00000000e+00    
           1.15730043e-04    -2.50693961e-06     0.00000000e+00    
           1.20135010e-04    -4.31654416e-06     0.00000000e+00    
           1.25238439e-04    -5.21908987e-06     0.00000000e+00    
           6.72913302e-05     2.15150831e-05     0.00000000e+00    
           6.34886819e-05     1.88257254e-05     0.00000000e+00    
           6.07572692e-05     1.51584482e-05     0.00000000e+00    
           5.93085351e-05     1.07162596e-05     0.00000000e+00    
           6.00515559e-05     5.58978991e-06     0.00000000e+00    
           6.39588397e-05    -4.08669734e-07     0.00000000e+00    
           6.97748255e-05    -5.50714321e-06     0.00000000e+00    
           7.65000950e-05    -8.85483223e-06     0.00000000e+00    
           8.33106387e-05    -1.04577557e-05     0.00000000e+00    
           9.54041316e-05    -1.03604916e-05     0.00000000e+00    
           1.00475394e-04    -9.32744388e-06     0.00000000e+00    
           1.05398220e-04    -7.06769424e-06     0.00000000e+00    
           1.09754743e-04    -3.58258399e-06     0.00000000e+00    
           1.13089030e-04     1.17256559e-06     0.00000000e+00    
           1.14405477e-04     6.54939686e-06     0.00000000e+00    
           1.13810587e-04     1.19706165e-05     0.00000000e+00    
           1.11466936e-04     1.70459916e-05     0.00000000e+00    
           1.07561929e-04     2.13145504e-05     0.00000000e+00    
           9.61465921e-05     2.66358202e-05     0.00000000e+00    
           8.93600591e-05     2.69844168e-05     0.00000000e+00    
           8.26098112e-05     2.63555121e-05     0.00000000e+00    
           7.65489240e-05     2.48078049e-05     0.00000000e+00    
           2.08690893e-04    -2.16564113e-05     0.00000000e+00    
           2.13502426e-04    -2.02056253e-05     0.00000000e+00    
           2.17816691e-04    -1.80155457e-05     0.00000000e+00    
           2.21696013e-04    -1.49352554e-05     0.00000000e+00    
           2.24614167e-04    -1.13071319e-05     0.00000000e+00    
           2.26010743e-04    -7.15875876e-06     0.00000000e+00    
           2.25715034e-04    -2.53763892e-06     0.00000000e+00    
           2.23518815e-04     2.41500106e-06     0.00000000e+00    
           2.19752954e-04     7.00809687e-06     0.00000000e+00    
           2.15043212e-04     1.04406699e-05     0.00000000e+00    
           2.09390855e-04     1.26801788e-05     0.00000000e+00    
           1.96235575e-04     1.38803753e-05     0.00000000e+00    
           1.89880986e-04     1.24813350e-05     0.00000000e+00    
           1.84240576e-04     9.73427814e-06     0.00000000e+00    
           1.79824987e-04     5.66927747e-06     0.00000000e+00    
           1.76911024e-04     7.08974142e-07     0.00000000e+00    
           1.75948924e-04    -4.73822138e-06     0.00000000e+00    
           1.77050140e-04    -1.00717771e-05     0.00000000e+00    
           1.79963652e-04    -1.46362381e-05     0.00000000e+00    
           1.84449062e-04    -1.84070341e-05     0.00000000e+00    