<?xml version="1.0"?>
<VTKFile type="UnstructuredGrid" version="0.1">
  <UnstructuredGrid>
    <Piece NumberOfPoints="1034" NumberOfCells="1614">
      <Points>
        <DataArray type="Float32" NumberOfComponents="3">
           5.21582007e-01     5.11657000e-01     0.00000000e+00    
           5.07319987e-01     5.11657000e-01     0.00000000e+00    
           4.65243995e-01     5.17907977e-01     0.00000000e+00    
           4.65243995e-01     5.04921973e-01     0.00000000e+00    
           4.75246996e-01     5.11415005e-01     0.00000000e+00    
           5.33852994e-01     5.04921973e-01     0.00000000e+00    
           5.33852994e-01     5.17907977e-01     0.00000000e+00    
           4.83779997e-01     5.34618974e-01     0.00000000e+00    
           4.68984991e-01     5.34618974e-01     0.00000000e+00    
           4.76381987e-01     5.23841977e-01     0.00000000e+00    
           4.68984991e-01     4.66010004e-01     0.00000000e+00    
           4.83779997e-01     4.66010004e-01     0.00000000e+00    
           4.99920011e-01     5.34618974e-01     0.00000000e+00    
           4.89203990e-01     5.34618974e-01     0.00000000e+00    
           4.94562000e-01     5.22280991e-01     0.00000000e+00    
           4.89203990e-01     4.66010004e-01     0.00000000e+00    
           4.99920011e-01     4.66010004e-01     0.00000000e+00    
           5.32517016e-01     4.74112004e-01     0.00000000e+00    
           5.17961025e-01     4.74112004e-01     0.00000000e+00    
           5.33852994e-01     5.19801974e-01     0.00000000e+00    
           5.33852994e-01     5.29603004e-01     0.00000000e+00    
           5.19536972e-01     5.24702013e-01     0.00000000e+00    
           4.65243995e-01     5.29603004e-01     0.00000000e+00    
           4.65243995e-01     5.19801974e-01     0.00000000e+00    
           4.92487997e-01     5.17117977e-01     0.00000000e+00    
           4.76904988e-01     5.17117977e-01     0.00000000e+00    
           5.17996013e-01     5.27033985e-01     0.00000000e+00    
           5.04473984e-01     5.27033985e-01     0.00000000e+00    
           5.08446991e-01     4.83435005e-01     0.00000000e+00    
           4.94414002e-01     4.83435005e-01     0.00000000e+00    
           4.65243995e-01     4.83101994e-01     0.00000000e+00    
           4.65243995e-01     4.74415004e-01     0.00000000e+00    
           4.78336990e-01     4.78758007e-01     0.00000000e+00    
           5.33852994e-01     4.74415004e-01     0.00000000e+00    
           5.33852994e-01     4.83101994e-01     0.00000000e+00    
           4.80668008e-01     4.95810986e-01     0.00000000e+00    
           4.66084987e-01     4.95810986e-01     0.00000000e+00    
           4.93930012e-01     4.79214013e-01     0.00000000e+00    
           4.78967011e-01     4.79214013e-01     0.00000000e+00    
           5.09284973e-01     4.97658014e-01     0.00000000e+00    
           4.95503992e-01     4.97658014e-01     0.00000000e+00    
           5.33011973e-01     5.01751006e-01     0.00000000e+00    
           5.17829001e-01     5.01751006e-01     0.00000000e+00    
           4.95451003e-01     5.00564992e-01     0.00000000e+00    
           4.80922014e-01     5.00564992e-01     0.00000000e+00    
           5.25367022e-01     4.88312006e-01     0.00000000e+00    
           5.09521008e-01     4.88312006e-01     0.00000000e+00    
           4.65243995e-01     5.34618974e-01     0.00000000e+00    
           4.65243995e-01     4.66010004e-01     0.00000000e+00    
           5.33852994e-01     4.66010004e-01     0.00000000e+00    
           5.33852994e-01     5.34618974e-01     0.00000000e+00    
           5.21338999e-01     5.13502657e-01     0.00000000e+00    
           5.20626605e-01     5.15222490e-01     0.00000000e+00    
           5.19493401e-01     5.16699374e-01     0.00000000e+00    
           5.18016517e-01     5.17832637e-01     0.00000000e+00    
           5.16296625e-01     5.18545032e-01     0.00000000e+00    
           5.14451027e-01     5.18787980e-01     0.00000000e+00    
           5.12605369e-01     5.18545032e-01     0.00000000e+00    
           5.10885477e-01     5.17832637e-01     0.00000000e+00    
           5.09408593e-01     5.16699374e-01     0.00000000e+00    
           5.08275390e-01     5.15222490e-01     0.00000000e+00    
           5.07562995e-01     5.13502657e-01     0.00000000e+00    
           5.07562995e-01     5.09811342e-01     0.00000000e+00    
           5.08275390e-01     5.08091509e-01     0.00000000e+00    
           5.09408593e-01     5.06614625e-01     0.00000000e+00    
           5.10885477e-01     5.05481362e-01     0.00000000e+00    
           5.12605369e-01     5.04768968e-01     0.00000000e+00    
           5.14451027e-01     5.04526019e-01     0.00000000e+00    
           5.16296625e-01     5.04768968e-01     0.00000000e+00    
           5.18016517e-01     5.05481362e-01     0.00000000e+00    
           5.19493401e-01     5.06614625e-01     0.00000000e+00    
           5.20626605e-01     5.08091509e-01     0.00000000e+00    
           5.21338999e-01     5.09811342e-01     0.00000000e+00    
           4.66931671e-01     5.04409373e-01     0.00000000e+00    
           4.68693614e-01     5.04328012e-01     0.00000000e+00    
           4.70421344e-01     5.04682958e-01     0.00000000e+00    
           4.72008497e-01     5.05452335e-01     0.00000000e+00    
           4.73357379e-01     5.06588817e-01     0.00000000e+00    
           4.74384934e-01     5.08022368e-01     0.00000000e+00    
           4.75027919e-01     5.09664834e-01     0.00000000e+00    
           4.75028187e-01     5.13165236e-01     0.00000000e+00    
           4.74385172e-01     5.14807761e-01     0.00000000e+00    
           4.73357558e-01     5.16241372e-01     0.00000000e+00    
           4.72008646e-01     5.17377913e-01     0.00000000e+00    
           4.70421433e-01     5.18147290e-01     0.00000000e+00    
           4.68693614e-01     5.18502235e-01     0.00000000e+00    
           4.66931641e-01     5.18420875e-01     0.00000000e+00    
           5.32303810e-01     5.16964078e-01     0.00000000e+00    
           5.31043947e-01     5.15658796e-01     0.00000000e+00    
           5.30155540e-01     5.14077127e-01     0.00000000e+00    
           5.29696345e-01     5.12322068e-01     0.00000000e+00    
           5.29696345e-01     5.10507941e-01     0.00000000e+00    
           5.30155540e-01     5.08752882e-01     0.00000000e+00    
           5.31043947e-01     5.07171214e-01     0.00000000e+00    
           5.32303810e-01     5.05865932e-01     0.00000000e+00    
           4.68517244e-01     5.32760799e-01     0.00000000e+00    
           4.68509018e-01     5.30844629e-01     0.00000000e+00    
           4.68960851e-01     5.28982460e-01     0.00000000e+00    
           4.69846308e-01     5.27283132e-01     0.00000000e+00    
           4.71113682e-01     5.25845945e-01     0.00000000e+00    
           4.72688884e-01     5.24754822e-01     0.00000000e+00    
           4.74479854e-01     5.24073541e-01     0.00000000e+00    
           4.78284091e-01     5.24073601e-01     0.00000000e+00    
           4.80075032e-01     5.24754822e-01     0.00000000e+00    
           4.81650203e-01     5.25845885e-01     0.00000000e+00    
           4.82917547e-01     5.27283013e-01     0.00000000e+00    
           4.83803004e-01     5.28982282e-01     0.00000000e+00    
           4.84254897e-01     5.30844331e-01     0.00000000e+00    
           4.84246761e-01     5.32760441e-01     0.00000000e+00    
           4.82887864e-01     4.67691004e-01     0.00000000e+00    
           4.81620818e-01     4.69110936e-01     0.00000000e+00    
           4.80051905e-01     4.70188022e-01     0.00000000e+00    
           4.78271484e-01     4.70860153e-01     0.00000000e+00    
           4.76382166e-01     4.71088618e-01     0.00000000e+00    
           4.74492878e-01     4.70860243e-01     0.00000000e+00    
           4.72712427e-01     4.70188200e-01     0.00000000e+00    
           4.71143454e-01     4.69111174e-01     0.00000000e+00    
           4.69876349e-01     4.67691302e-01     0.00000000e+00    
           4.88103986e-01     5.33086061e-01     0.00000000e+00    
           4.87431526e-01     5.31323195e-01     0.00000000e+00    
           4.87231195e-01     5.29447019e-01     0.00000000e+00    
           4.87516224e-01     5.27581930e-01     0.00000000e+00    
           4.88267750e-01     5.25851250e-01     0.00000000e+00    
           4.89436030e-01     5.24369657e-01     0.00000000e+00    
           4.90943670e-01     5.23235261e-01     0.00000000e+00    
           4.92690891e-01     5.22523046e-01     0.00000000e+00    
           4.96432930e-01     5.22523701e-01     0.00000000e+00    
           4.98180002e-01     5.23235798e-01     0.00000000e+00    
           4.99687493e-01     5.24370134e-01     0.00000000e+00    
           5.00855684e-01     5.25851607e-01     0.00000000e+00    
           5.01607120e-01     5.27582109e-01     0.00000000e+00    
           5.01892149e-01     5.29447079e-01     0.00000000e+00    
           5.01691818e-01     5.31323016e-01     0.00000000e+00    
           5.01019418e-01     5.33085763e-01     0.00000000e+00    
           4.98371124e-01     4.67269689e-01     0.00000000e+00    
           4.96539861e-01     4.68064904e-01     0.00000000e+00    
           4.94562000e-01     4.68336672e-01     0.00000000e+00    
           4.92584139e-01     4.68064904e-01     0.00000000e+00    
           4.90752876e-01     4.67269689e-01     0.00000000e+00    
           5.32269001e-01     4.75995690e-01     0.00000000e+00    
           5.31541944e-01     4.77750987e-01     0.00000000e+00    
           5.30385315e-01     4.79258329e-01     0.00000000e+00    
           5.28877974e-01     4.80414927e-01     0.00000000e+00    
[...]
      <PointData>
        <DataArray type="Float32" Name="Displacement" NumberOfComponents="3">
           5.95825957e-04     2.33016053e-05     0.00000000e+00    
           5.95551275e-04     1.06108928e-04     0.00000000e+00    
           6.57838886e-04     2.30162323e-06     0.00000000e+00    
           5.52595244e-04     5.37748747e-06     0.00000000e+00    
           6.06516202e-04    -4.96749053e-05     0.00000000e+00    
           5.52595244e-04     5.37748747e-06     0.00000000e+00    
           6.57838886e-04     2.30162323e-06     0.00000000e+00    
           8.77374143e-04    -5.22502633e-05     0.00000000e+00    
           8.79513100e-04     6.54022806e-05     0.00000000e+00    
           7.73421780e-04     9.44633393e-06     0.00000000e+00    
          -2.04868775e-05     6.54022806e-05     0.00000000e+00    
          -2.26258289e-05    -5.22502633e-05     0.00000000e+00    
           8.33186961e-04    -4.91821884e-05     0.00000000e+00    
           8.37326981e-04    -1.59963492e-05     0.00000000e+00    
           7.74516200e-04    -3.67004359e-05     0.00000000e+00    
          -6.26730398e-05    -1.59963492e-05     0.00000000e+00    
          -6.68130597e-05    -4.91821884e-05     0.00000000e+00    
           1.50248874e-04    -2.23865882e-05     0.00000000e+00    
           1.47691317e-04     9.43532141e-05     0.00000000e+00    
           7.14605150e-04    -1.17645077e-05     0.00000000e+00    
           8.08034849e-04    -1.44680898e-05     0.00000000e+00    
           7.62889453e-04     9.13995100e-05     0.00000000e+00    
           8.08034849e-04    -1.44680898e-05     0.00000000e+00    
           7.14605150e-04    -1.17645077e-05     0.00000000e+00    
           6.79101620e-04    -7.45539946e-05     0.00000000e+00    
           6.73951930e-04     4.06887775e-05     0.00000000e+00    
           7.86200690e-04     4.35149777e-05     0.00000000e+00    
           7.88706355e-04     8.47740375e-05     0.00000000e+00    
           2.73939309e-04    -9.80125242e-06     0.00000000e+00    
           2.66943302e-04     3.93608352e-05     0.00000000e+00    
           2.24402844e-04     6.48394052e-05     0.00000000e+00    
           1.48371662e-04     6.42710875e-05     0.00000000e+00    
           1.91358704e-04    -2.68752137e-05     0.00000000e+00    
           1.48371662e-04     6.42710875e-05     0.00000000e+00    
           2.24402844e-04     6.48394052e-05     0.00000000e+00    
           4.39186406e-04    -4.86363278e-05     0.00000000e+00    
           4.39566473e-04     3.36706507e-05     0.00000000e+00    
           2.13382489e-04    -5.61180095e-05     0.00000000e+00    
           2.04410288e-04     1.62929337e-05     0.00000000e+00    
           4.33753186e-04     1.28864895e-05     0.00000000e+00    
           4.40993288e-04     2.23631287e-05     0.00000000e+00    
           5.04299242e-04    -2.59726476e-05     0.00000000e+00    
           5.06055250e-04     6.90722081e-05     0.00000000e+00    
           4.53948218e-04    -2.97414408e-05     0.00000000e+00    
           4.58920724e-04    -8.39461450e-07     0.00000000e+00    
           3.30305687e-04     1.01982796e-05     0.00000000e+00    
           3.29081755e-04     1.20833247e-04     0.00000000e+00    
           8.99999985e-04     0.00000000e+00     0.00000000e+00    
           0.00000000e+00     0.00000000e+00     0.00000000e+00    
           0.00000000e+00     0.00000000e+00     0.00000000e+00    
           8.99999985e-04     0.00000000e+00     0.00000000e+00    
           6.11495750e-04     2.46767158e-05     0.00000000e+00    
           6.25648594e-04     2.93795638e-05     0.00000000e+00    
           6.37469930e-04     3.60485355e-05     0.00000000e+00    
           6.46221335e-04     4.40791227e-05     0.00000000e+00    
           6.51593029e-04     5.34728242e-05     0.00000000e+00    
           6.53815630e-04     6.34647004e-05     0.00000000e+00    
           6.52070099e-04     7.45061261e-05     0.00000000e+00    
           6.45884895e-04     8.55998951e-05     0.00000000e+00    
           6.35857985e-04     9.50878530e-05     0.00000000e+00    
           6.23709289e-04     1.01536083e-04     0.00000000e+00    
           6.10021874e-04     1.05261257e-04     0.00000000e+00    
           5.81116008e-04     1.03854516e-04     0.00000000e+00    
           5.67682262e-04     9.91288616e-05     0.00000000e+00    
           5.56484098e-04     9.22774998e-05     0.00000000e+00    
           5.48235897e-04     8.42204099e-05     0.00000000e+00    
           5.43607282e-04     7.52255073e-05     0.00000000e+00    
           5.42575261e-04     6.59811412e-05     0.00000000e+00    
           5.44055714e-04     5.73001562e-05     0.00000000e+00    
           5.47251431e-04     5.00412316e-05     0.00000000e+00    
           5.52424986e-04     4.35772199e-05     0.00000000e+00    
           5.63817157e-04     3.35462573e-05     0.00000000e+00    
           5.79430081e-04     2.60790930e-05     0.00000000e+00    
           5.49899938e-04    -1.24077349e-06     0.00000000e+00    
           5.49385208e-04    -9.44847397e-06     0.00000000e+00    
           5.51896926e-04    -1.91181553e-05     0.00000000e+00    
           5.58160944e-04    -2.91250381e-05     0.00000000e+00    
           5.67448500e-04    -3.81603350e-05     0.00000000e+00    
           5.79084444e-04    -4.47929851e-05     0.00000000e+00    
           5.92330704e-04    -4.85365563e-05     0.00000000e+00    
           6.20246807e-04    -4.82490650e-05     0.00000000e+00    
           6.32236886e-04    -4.45309488e-05     0.00000000e+00    
           6.42381026e-04    -3.89566121e-05     0.00000000e+00    
           6.50098023e-04    -3.16099940e-05     0.00000000e+00    
           6.55817566e-04    -2.32016700e-05     0.00000000e+00    
           6.59233192e-04    -1.46022485e-05     0.00000000e+00    
           6.59783080e-04    -6.03325998e-06     0.00000000e+00    
           6.51252805e-04     1.23318059e-05     0.00000000e+00    
           6.39425823e-04     2.19635531e-05     0.00000000e+00    
           6.24738052e-04     2.91709548e-05     0.00000000e+00    
           6.09161740e-04     3.22622509e-05     0.00000000e+00    
           5.93374309e-04     3.13285746e-05     0.00000000e+00    
           5.78351726e-04     2.68520653e-05     0.00000000e+00    
           5.65665890e-04     1.98679627e-05     0.00000000e+00    
           5.57532825e-04     1.19554970e-05     0.00000000e+00    
           8.59461492e-04     6.84913612e-05     0.00000000e+00    
           8.39381944e-04     6.77989519e-05     0.00000000e+00    
           8.20706773e-04     6.36225886e-05     0.00000000e+00    
           8.04781565e-04     5.64179645e-05     0.00000000e+00    
           7.92133156e-04     4.64704972e-05     0.00000000e+00    
           7.82449089e-04     3.46206798e-05     0.00000000e+00    
           7.76002824e-04     2.19850790e-05     0.00000000e+00    
           7.74104439e-04    -2.67010068e-06     0.00000000e+00    
           7.79250520e-04    -1.55381749e-05     0.00000000e+00    
           7.89875980e-04    -2.95354712e-05     0.00000000e+00    
           8.04849667e-04    -4.23780293e-05     0.00000000e+00    
           8.21772264e-04    -5.13761042e-05     0.00000000e+00    
           8.39539396e-04    -5.56965751e-05     0.00000000e+00    
           8.58299958e-04    -5.59077962e-05     0.00000000e+00    
          -4.61051513e-06    -4.48345854e-05     0.00000000e+00    
           1.08024642e-05    -3.44549589e-05     0.00000000e+00    
           2.25305812e-05    -2.22300641e-05     0.00000000e+00    
           3.02240478e-05    -9.73209353e-06     0.00000000e+00    
           3.32864183e-05     3.65633537e-06     0.00000000e+00    
           3.24953762e-05     1.70366384e-05     0.00000000e+00    
           2.54894767e-05     3.24432040e-05     0.00000000e+00    
           1.33698995e-05     4.69482620e-05     0.00000000e+00    
          -2.47474532e-06     5.82129360e-05     0.00000000e+00    
           8.29779659e-04    -1.20941877e-05     0.00000000e+00    
           8.21101072e-04    -1.01234491e-05     0.00000000e+00    
           8.11379461e-04    -9.98907126e-06     0.00000000e+00    
           8.00908485e-04    -1.17806403e-05     0.00000000e+00    
           7.90017191e-04    -1.61686712e-05     0.00000000e+00    
           7.81333598e-04    -2.24019677e-05     0.00000000e+00    
           7.76276749e-04    -2.83086283e-05     0.00000000e+00    
           7.74187967e-04    -3.27281050e-05     0.00000000e+00    
           7.76523259e-04    -4.08326559e-05     0.00000000e+00    
           7.80343544e-04    -4.46513259e-05     0.00000000e+00    
           7.85766693e-04    -4.77568028e-05     0.00000000e+00    
           7.92136008e-04    -5.02012590e-05     0.00000000e+00    
           7.98993919e-04    -5.15589018e-05     0.00000000e+00    
           8.06879660e-04    -5.24505267e-05     0.00000000e+00    
           8.15476582e-04    -5.26545882e-05     0.00000000e+00    
           8.24636489e-04    -5.17340522e-05     0.00000000e+00    
          -5.94519333e-05    -4.48895480e-05     0.00000000e+00    
          -5.42035086e-05    -3.96764881e-05     0.00000000e+00    
          -5.15015563e-05    -3.41793202e-05     0.00000000e+00    
          -5.21774818e-05    -2.79750493e-05     0.00000000e+00    
          -5.60540902e-05    -2.16682311e-05     0.00000000e+00    
           1.68888844e-04    -2.00374616e-05     0.00000000e+00    
           1.85070065e-04    -1.38234118e-05     0.00000000e+00    
           1.98076668e-04    -5.77576975e-06     0.00000000e+00    
           2.08570433e-04     4.31487979e-06     0.00000000e+00    
           2.16330169e-04     1.63977566e-05     0.00000000e+00    
           2.20404065e-04     2.96866438e-05     0.00000000e+00    
           2.20578062e-04     4.35219445e-05     0.00000000e+00    
           2.14884829e-04     5.79075204e-05     0.00000000e+00    
           2.02775584e-04     7.25316058e-05     0.00000000e+00    
           1.86173318e-04     8.46106705e-05     0.00000000e+00    
           1.67340040e-04     9.20186721e-05     0.00000000e+00    
           1.28196378e-04     9.25427084e-05     0.00000000e+00    
           1.10081841e-04     8.66801201e-05     0.00000000e+00    
           9.46645450e-05     7.74082146e-05     0.00000000e+00    
           8.29968776e-05     6.52908348e-05     0.00000000e+00    
           7.58501556e-05     5.11487342e-05     0.00000000e+00    
           7.34201385e-05     3.58335310e-05     0.00000000e+00    
           7.60257826e-05     1.98429643e-05     0.00000000e+00    
           8.42451991e-05     4.58244904e-06     0.00000000e+00    
           9.65802683e-05    -7.75335593e-06     0.00000000e+00    
           1.12455506e-04    -1.64371886e-05     0.00000000e+00    
           1.30908855e-04    -2.14407264e-05     0.00000000e+00    
           8.20062822e-04    -5.03765705e-06     0.00000000e+00    
           8.29084369e-04     6.78267588e-06     0.00000000e+00    
           8.34724342e-04     2.06496243e-05     0.00000000e+00    
           8.35442799e-04     3.61941493e-05     0.00000000e+00    
           8.30631703e-04     5.23228591e-05     0.00000000e+00    
           8.21437978e-04     6.67343338e-05     0.00000000e+00    
           8.08909419e-04     7.80751143e-05     0.00000000e+00    
           7.94574094e-04     8.59620195e-05     0.00000000e+00    
           7.79320893e-04     9.02334432e-05     0.00000000e+00    
           7.45188328e-04     8.94213881e-05     0.00000000e+00    
           7.27575796e-04     8.38893320e-05     0.00000000e+00    
           7.12059613e-04     7.51806801e-05     0.00000000e+00    
           7.00138276e-04     6.42147497e-05     0.00000000e+00    
           6.92660571e-04     5.16267028e-05     0.00000000e+00    
           6.88867643e-04     3.85100102e-05     0.00000000e+00    
           6.88569329e-04     2.53910239e-05     0.00000000e+00    
           6.91685535e-04     1.31460474e-05     0.00000000e+00    
           7.00028904e-04     5.03285378e-07     0.00000000e+00    
           7.30258296e-04    -2.03160689e-05     0.00000000e+00    
           7.47095153e-04    -2.51110960e-05     0.00000000e+00    
           7.64130673e-04    -2.64120881e-05     0.00000000e+00    
           7.80409900e-04    -2.45790579e-05     0.00000000e+00    
           7.95181957e-04    -2.03669315e-05     0.00000000e+00    
           6.97348616e-04    -7.21229517e-05     0.00000000e+00    
           7.14735535e-04    -6.55991535e-05     0.00000000e+00    
           7.30284897e-04    -5.63630419e-05     0.00000000e+00    
           7.40859599e-04    -4.55759873e-05     0.00000000e+00    
           7.47481419e-04    -3.52292009e-05     0.00000000e+00    
           7.50230451e-04    -2.51124602e-05     0.00000000e+00    
           7.50106468e-04    -1.45689783e-05     0.00000000e+00    
           7.47393817e-04    -3.11434314e-06     0.00000000e+00    
           7.39437295e-04     9.52218761e-06     0.00000000e+00    
           7.26273691e-04     2.25671101e-05     0.00000000e+00    
           7.09923042e-04     3.26950612e-05     0.00000000e+00    
           6.92258589e-04     3.85576386e-05     0.00000000e+00    
           6.56509714e-04     3.91004942e-05     0.00000000e+00    
           6.41127175e-04     3.43900829e-05     0.00000000e+00    
           6.27972535e-04     2.77713971e-05     0.00000000e+00    
           6.17063488e-04     1.84588771e-05     0.00000000e+00    
           6.08710747e-04     7.05099183e-06     0.00000000e+00    
           6.03348133e-04    -5.68084715e-06     0.00000000e+00    
           6.02508720e-04    -1.96269448e-05     0.00000000e+00    
           6.06942456e-04    -3.39244143e-05     0.00000000e+00    
           6.15882280e-04    -4.76276582e-05     0.00000000e+00    
           6.28528069e-04    -5.93573968e-05     0.00000000e+00    
           6.43849780e-04    -6.79084915e-05     0.00000000e+00    
           6.60977385e-04    -7.30552347e-05     0.00000000e+00    
           7.95989821e-04     4.43273893e-05     0.00000000e+00    
           8.05393793e-04     4.69831903e-05     0.00000000e+00    
           8.13187507e-04     5.13184095e-05     0.00000000e+00    
           8.18371365e-04     5.68532123e-05     0.00000000e+00    
           8.20589135e-04     6.28918642e-05     0.00000000e+00    
           8.19911656e-04     6.90170054e-05     0.00000000e+00    
           8.16497370e-04     7.46838778e-05     0.00000000e+00    
           8.10979167e-04     7.92356223e-05     0.00000000e+00    
           8.04044423e-04     8.24368253e-05     0.00000000e+00    
           7.96806358e-04     8.37569096e-05     0.00000000e+00    
           7.80012168e-04     8.51236400e-05     0.00000000e+00    
           7.71089515e-04     8.42282534e-05     0.00000000e+00    
           7.62993877e-04     8.16817483e-05     0.00000000e+00    
           7.56277237e-04     7.79583352e-05     0.00000000e+00    
           7.52116088e-04     7.22734039e-05     0.00000000e+00    
           7.51338841e-04     6.50517686e-05     0.00000000e+00    
           7.54538982e-04     5.70546290e-05     0.00000000e+00    
           7.60988041e-04     5.02225048e-05     0.00000000e+00    
           7.68416154e-04     4.60258161e-05     0.00000000e+00    
           7.76621571e-04     4.41820339e-05     0.00000000e+00    
           2.84533715e-04    -9.03871842e-06     0.00000000e+00    
           2.93650199e-04    -7.55887777e-06     0.00000000e+00    
           3.01226450e-04    -4.33029618e-06     0.00000000e+00    
           3.08053481e-04     1.25204497e-06     0.00000000e+00    
           3.11949785e-04     8.43793714e-06     0.00000000e+00    
           3.13014258e-04     1.52896937e-05     0.00000000e+00    
           3.11590033e-04     2.17500583e-05     0.00000000e+00    
           3.06706177e-04     2.85613605e-05     0.00000000e+00    
           2.98745814e-04     3.32941636e-05     0.00000000e+00    
           2.89285672e-04     3.66135682e-05     0.00000000e+00    
           2.78278574e-04     3.89592533e-05     0.00000000e+00    
           2.56420666e-04     3.81895625e-05     0.00000000e+00    
           2.47880147e-04     3.54012227e-05     0.00000000e+00    
           2.41662536e-04     3.16466831e-05     0.00000000e+00    
           2.36792475e-04     2.67995074e-05     0.00000000e+00    
           2.33431114e-04     2.10522921e-05     0.00000000e+00    
           2.32016508e-04     1.47546061e-05     0.00000000e+00    
           2.33612955e-04     8.20059995e-06     0.00000000e+00    
           2.37911619e-04     1.99444048e-06     0.00000000e+00    
           2.44795869e-04    -3.03702132e-06     0.00000000e+00    
           2.53442064e-04    -6.92234107e-06     0.00000000e+00    
           2.63398862e-04    -9.13905387e-06     0.00000000e+00    
           1.37783994e-04     5.74347723e-05     0.00000000e+00    
           1.28926447e-04     4.90793718e-05     0.00000000e+00    
           1.22877827e-04     3.86645734e-05     0.00000000e+00    
           1.20243254e-04     2.67135019e-05     0.00000000e+00    
           1.22422294e-04     1.38364812e-05     0.00000000e+00    
           1.31463632e-04    -5.42799683e-07     0.00000000e+00    
           1.44670979e-04    -1.27746844e-05     0.00000000e+00    
           1.59988937e-04    -2.10454855e-05     0.00000000e+00    
           1.75846275e-04    -2.55992582e-05     0.00000000e+00    
           2.05746197e-04    -2.55140130e-05     0.00000000e+00    
           2.18728645e-04    -2.20167076e-05     0.00000000e+00    
           2.30847800e-04    -1.56766855e-05     0.00000000e+00    
           2.41287387e-04    -6.44195143e-06     0.00000000e+00    
           2.48960539e-04     5.51081030e-06     0.00000000e+00    
           2.52117228e-04     1.88410777e-05     0.00000000e+00    
           2.50917743e-04     3.23905188e-05     0.00000000e+00    
           2.45574221e-04     4.52566928e-05     0.00000000e+00    
           2.36457956e-04     5.62941750e-05     0.00000000e+00    
           2.09568330e-04     7.07554937e-05     0.00000000e+00    
           1.93579806e-04     7.30359243e-05     0.00000000e+00    
           1.77000562e-04     7.31176769e-05     0.00000000e+00    
           1.61503063e-04     6.97738142e-05     0.00000000e+00    
           4.51792235e-04    -4.67001228e-05     0.00000000e+00    
           4.62728436e-04    -4.31175649e-05     0.00000000e+00    
           4.72305604e-04    -3.77722354e-05     0.00000000e+00    
           4.80711780e-04    -3.05979411e-05     0.00000000e+00    
           4.86961828e-04    -2.22069939e-05     0.00000000e+00    
           4.89881844e-04    -1.26928726e-05     0.00000000e+00    
           4.89112863e-04    -2.24999712e-06     0.00000000e+00    
           4.84251534e-04     8.73644603e-06     0.00000000e+00    
           4.76048619e-04     1.87881578e-05     0.00000000e+00    
           4.65838995e-04     2.62413632e-05     0.00000000e+00    
           4.53584507e-04     3.10077776e-05     0.00000000e+00    
           4.24920639e-04     3.33620701e-05     0.00000000e+00    
           4.11097106e-04     3.01825621e-05     0.00000000e+00    
           3.98917327e-04     2.40748159e-05     0.00000000e+00    
           3.89517809e-04     1.50742835e-05     0.00000000e+00    
           3.83434031e-04     4.20275001e-06     0.00000000e+00    
           3.81353806e-04    -7.68720747e-06     0.00000000e+00    
           3.83467617e-04    -1.94613131e-05     0.00000000e+00    
           3.89520632e-04    -2.97495390e-05     0.00000000e+00    
           3.99078155e-04    -3.82888757e-05     0.00000000e+00    