<?xml version="1.0"?>
<VTKFile type="UnstructuredGrid" version="0.1">
  <UnstructuredGrid>
    <Piece NumberOfPoints="1034" NumberOfCells="1614">
      <Points>
        <DataArray type="Float32" NumberOfComponents="3">
           5.21582007e-01     5.11657000e-01     0.00000000e+00    
           5.07319987e-01     5.11657000e-01     0.00000000e+00    
           4.65243995e-01     5.17907977e-01     0.00000000e+00    
           4.65243995e-01     5.04921973e-01     0.00000000e+00    
           4.75246996e-01     5.11415005e-01     0.00000000e+00    
           5.33852994e-01     5.04921973e-01     0.00000000e+00    
           5.33852994e-01     5.17907977e-01     0.00000000e+00    
           4.83779997e-01     5.34618974e-01     0.00000000e+00    
           4.68984991e-01     5.34618974e-01     0.00000000e+00    
           4.76381987e-01     5.23841977e-01     0.00000000e+00    
           4.68984991e-01     4.66010004e-01     0.00000000e+00    
           4.83779997e-01     4.66010004e-01     0.00000000e+00    
           4.99920011e-01     5.34618974e-01     0.00000000e+00    
           4.89203990e-01     5.34618974e-01     0.00000000e+00    
           4.94562000e-01     5.22280991e-01     0.00000000e+00    
           4.89203990e-01     4.66010004e-01     0.00000000e+00    
           4.99920011e-01     4.66010004e-01     0.00000000e+00    
           5.32517016e-01     4.74112004e-01     0.00000000e+00    
           5.17961025e-01     4.74112004e-01     0.00000000e+00    
           5.33852994e-01     5.19801974e-01     0.00000000e+00    
           5.33852994e-01     5.29603004e-01     0.00000000e+00    
           5.19536972e-01     5.24702013e-01     0.00000000e+00    
           4.65243995e-01     5.29603004e-01     0.00000000e+00    
           4.65243995e-01     5.19801974e-01     0.00000000e+00    
           4.92487997e-01     5.17117977e-01     0.00000000e+00    
           4.76904988e-01     5.17117977e-01     0.00000000e+00    
           5.17996013e-01     5.27033985e-01     0.00000000e+00    
           5.04473984e-01     5.27033985e-01     0.00000000e+00    
           5.08446991e-01     4.83435005e-01     0.00000000e+00    
           4.94414002e-01     4.83435005e-01     0.00000000e+00    
           4.65243995e-01     4.83101994e-01     0.00000000e+00    
           4.65243995e-01     4.74415004e-01     0.00000000e+00    
           4.78336990e-01     4.78758007e-01     0.00000000e+00    
           5.33852994e-01     4.74415004e-01     0.00000000e+00    
           5.33852994e-01     4.83101994e-01     0.00000000e+00    
           4.80668008e-01     4.95810986e-01     0.00000000e+00    
           4.66084987e-01     4.95810986e-01     0.00000000e+00    
           4.93930012e-01     4.79214013e-01     0.00000000e+00    
           4.78967011e-01     4.79214013e-01     0.00000000e+00    
           5.09284973e-01     4.97658014e-01     0.00000000e+00    
           4.95503992e-01     4.97658014e-01     0.00000000e+00    
           5.33011973e-01     5.01751006e-01     0.00000000e+00    
           5.17829001e-01     5.01751006e-01     0.00000000e+00    
           4.95451003e-01     5.00564992e-01     0.00000000e+00    
           4.80922014e-01     5.00564992e-01     0.00000000e+00    
           5.25367022e-01     4.88312006e-01     0.00000000e+00    
           5.09521008e-01     4.88312006e-01     0.00000000e+00    
           4.65243995e-01     5.34618974e-01     0.00000000e+00    
           4.65243995e-01     4.66010004e-01     0.00000000e+00    
           5.33852994e-01     4.66010004e-01     0.00000000e+00    
           5.33852994e-01     5.34618974e-01     0.00000000e+00    
           5.21338999e-01     5.13502657e-01     0.00000000e+00    
           5.20626605e-01     5.15222490e-01     0.00000000e+00    
           5.19493401e-01     5.16699374e-01     0.00000000e+00    
           5.18016517e-01     5.17832637e-01     0.00000000e+00    
           5.16296625e-01     5.18545032e-01     0.00000000e+00    
           5.14451027e-01     5.18787980e-01     0.00000000e+00    
           5.12605369e-01     5.18545032e-01     0.00000000e+00    
           5.10885477e-01     5.17832637e-01     0.00000000e+00    
           5.09408593e-01     5.16699374e-01     0.00000000e+00    
           5.08275390e-01     5.15222490e-01     0.00000000e+00    
           5.07562995e-01     5.13502657e-01     0.00000000e+00    
           5.07562995e-01     5.09811342e-01     0.00000000e+00    
           5.08275390e-01     5.08091509e-01     0.00000000e+00    
           5.09408593e-01     5.06614625e-01     0.00000000e+00    
           5.10885477e-01     5.05481362e-01     0.00000000e+00    
           5.12605369e-01     5.04768968e-01     0.00000000e+00    
           5.14451027e-01     5.04526019e-01     0.00000000e+00    
           5.16296625e-01     5.04768968e-01     0.00000000e+00    
           5.18016517e-01     5.05481362e-01     0.00000000e+00    
           5.19493401e-01     5.06614625e-01     0.00000000e+00    
           5.20626605e-01     5.08091509e-01     0.00000000e+00    
           5.21338999e-01     5.09811342e-01     0.00000000e+00    
           4.66931671e-01     5.04409373e-01     0.00000000e+00    
           4.68693614e-01     5.04328012e-01     0.00000000e+00    
           4.70421344e-01     5.04682958e-01     0.00000000e+00    
           4.72008497e-01     5.05452335e-01     0.00000000e+00    
           4.73357379e-01     5.06588817e-01     0.00000000e+00    
           4.74384934e-01     5.08022368e-01     0.00000000e+00    
           4.75027919e-01     5.09664834e-01     0.00000000e+00    
           4.75028187e-01     5.13165236e-01     0.00000000e+00    
           4.74385172e-01     5.14807761e-01     0.00000000e+00    
           4.73357558e-01     5.16241372e-01     0.00000000e+00    
           4.72008646e-01     5.17377913e-01     0.00000000e+00    
           4.70421433e-01     5.18147290e-01     0.00000000e+00    
           4.68693614e-01     5.18502235e-01     0.00000000e+00    
           4.66931641e-01     5.18420875e-01     0.00000000e+00    
           5.32303810e-01     5.16964078e-01     0.00000000e+00    
           5.31043947e-01     5.15658796e-01     0.00000000e+00    
           5.30155540e-01     5.14077127e-01     0.00000000e+00    
           5.29696345e-01     5.12322068e-01     0.00000000e+00    
           5.29696345e-01     5.10507941e-01     0.00000000e+00    
           5.30155540e-01     5.08752882e-01     0.00000000e+00    
           5.31043947e-01     5.07171214e-01     0.00000000e+00    
           5.32303810e-01     5.05865932e-01     0.00000000e+00    
           4.68517244e-01     5.32760799e-01     0.00000000e+00    
           4.68509018e-01     5.30844629e-01     0.00000000e+00    
           4.68960851e-01     5.28982460e-01     0.00000000e+00    
           4.69846308e-01     5.27283132e-01     0.00000000e+00    
           4.71113682e-01     5.25845945e-01     0.00000000e+00    
           4.72688884e-01     5.24754822e-01     0.00000000e+00    
           4.74479854e-01     5.24073541e-01     0.00000000e+00    
           4.78284091e-01     5.24073601e-01     0.00000000e+00    
           4.80075032e-01     5.24754822e-01     0.00000000e+00    
           4.81650203e-01     5.25845885e-01     0.00000000e+00    
           4.82917547e-01     5.27283013e-01     0.00000000e+00    
           4.83803004e-01     5.28982282e-01     0.00000000e+00    
           4.84254897e-01     5.30844331e-01     0.00000000e+00    
           4.84246761e-01     5.32760441e-01     0.00000000e+00    
           4.82887864e-01     4.67691004e-01     0.00000000e+00    
           4.81620818e-01     4.69110936e-01     0.00000000e+00    
           4.80051905e-01     4.70188022e-01     0.00000000e+00    
           4.78271484e-01     4.70860153e-01     0.00000000e+00    
           4.76382166e-01     4.71088618e-01     0.00000000e+00    
           4.74492878e-01     4.70860243e-01     0.00000000e+00    
           4.72712427e-01     4.70188200e-01     0.00000000e+00    
           4.71143454e-01     4.69111174e-01     0.00000000e+00    
           4.69876349e-01     4.67691302e-01     0.00000000e+00    
           4.88103986e-01     5.33086061e-01     0.00000000e+00    
           4.87431526e-01     5.31323195e-01     0.00000000e+00    
           4.87231195e-01     5.29447019e-01     0.00000000e+00    
           4.87516224e-01     5.27581930e-01     0.00000000e+00    
           4.88267750e-01     5.25851250e-01     0.00000000e+00    
           4.89436030e-01     5.24369657e-01     0.00000000e+00    
           4.90943670e-01     5.23235261e-01     0.00000000e+00    
           4.92690891e-01     5.22523046e-01     0.00000000e+00    
           4.96432930e-01     5.22523701e-01     0.00000000e+00    
           4.98180002e-01     5.23235798e-01     0.00000000e+00    
           4.99687493e-01     5.24370134e-01     0.00000000e+00    
           5.00855684e-01     5.25851607e-01     0.00000000e+00    
           5.01607120e-01     5.27582109e-01     0.00000000e+00    
           5.01892149e-01     5.29447079e-01     0.00000000e+00    
           5.01691818e-01     5.31323016e-01     0.00000000e+00    
           5.01019418e-01     5.33085763e-01     0.00000000e+00    
           4.98371124e-01     4.67269689e-01     0.00000000e+00    
           4.96539861e-01     4.68064904e-01     0.00000000e+00    
           4.94562000e-01     4.68336672e-01     0.00000000e+00    
           4.92584139e-01     4.68064904e-01     0.00000000e+00    
           4.90752876e-01     4.67269689e-01     0.00000000e+00    
           5.32269001e-01     4.75995690e-01     0.00000000e+00    
           5.31541944e-01     4.77750987e-01     0.00000000e+00    
           5.30385315e-01     4.79258329e-01     0.00000000e+00    
           5.28877974e-01     4.80414927e-01     0.00000000e+00    
[...]
      <PointData>
        <DataArray type="Float32" Name="Displacement" NumberOfComponents="3">
           6.64343708e-04     2.91207125e-05     0.00000000e+00    
           6.64073916e-04     1.20256249e-04     0.00000000e+00    
           7.33911234e-04     4.75893421e-06     0.00000000e+00    
           6.17345911e-04     8.48622403e-06     0.00000000e+00    
           6.77016447e-04    -5.38088789e-05     0.00000000e+00    
           6.17345911e-04     8.48622403e-06     0.00000000e+00    
           7.33911234e-04     4.75893421e-06     0.00000000e+00    
           9.73586342e-04    -5.70710690e-05     0.00000000e+00    
           9.76081647e-04     7.29379535e-05     0.00000000e+00    
           8.59489432e-04     1.09971752e-05     0.00000000e+00    
          -2.39183373e-05     7.29379535e-05     0.00000000e+00    
          -2.64136743e-05    -5.70710690e-05     0.00000000e+00    
           9.25543252e-04    -5.36396074e-05     0.00000000e+00    
           9.29929491e-04    -1.79847557e-05     0.00000000e+00    
           8.62301677e-04    -4.00726458e-05     0.00000000e+00    
          -7.00705350e-05    -1.79847557e-05     0.00000000e+00    
          -7.44567660e-05    -5.36396074e-05     0.00000000e+00    
           1.68003637e-04    -2.73136011e-05     0.00000000e+00    
           1.65360776e-04     1.07976142e-04     0.00000000e+00    
           7.95056869e-04    -1.14570857e-05     0.00000000e+00    
           8.97983089e-04    -1.46987486e-05     0.00000000e+00    
           8.48229334e-04     1.03035323e-04     0.00000000e+00    
           8.97983089e-04    -1.46987486e-05     0.00000000e+00    
           7.95056869e-04    -1.14570857e-05     0.00000000e+00    
           7.56366353e-04    -8.27176555e-05     0.00000000e+00    
           7.50996987e-04     4.45305996e-05     0.00000000e+00    
           8.74066609e-04     5.10333739e-05     0.00000000e+00    
           8.76787293e-04     9.73281203e-05     0.00000000e+00    
           3.05482332e-04    -1.03958046e-05     0.00000000e+00    
           2.98543571e-04     4.54092296e-05     0.00000000e+00    
           2.52858503e-04     7.53902132e-05     0.00000000e+00    
           1.65829464e-04     7.51589541e-05     0.00000000e+00    
           2.14582557e-04    -3.08653362e-05     0.00000000e+00    
           1.65829464e-04     7.51589541e-05     0.00000000e+00    
           2.52858503e-04     7.53902132e-05     0.00000000e+00    
           4.91717015e-04    -5.40586188e-05     0.00000000e+00    
           4.92189894e-04     3.87522559e-05     0.00000000e+00    
           2.38410386e-04    -6.57077835e-05     0.00000000e+00    
           2.29287150e-04     1.86584693e-05     0.00000000e+00    
           4.86750243e-04     1.76063768e-05     0.00000000e+00    
           4.94391483e-04     2.54012011e-05     0.00000000e+00    
           5.63907437e-04    -2.64529644e-05     0.00000000e+00    
           5.65952272e-04     7.90414051e-05     0.00000000e+00    
           5.08640136e-04    -3.48146568e-05     0.00000000e+00    
           5.13953913e-04    -1.29099885e-06     0.00000000e+00    
           3.69627727e-04     1.31759389e-05     0.00000000e+00    
           3.68388806e-04     1.40730815e-04     0.00000000e+00    
           1.00000005e-03     0.00000000e+00     0.00000000e+00    
           0.00000000e+00     0.00000000e+00     0.00000000e+00    
           0.00000000e+00     0.00000000e+00     0.00000000e+00    
           1.00000005e-03     0.00000000e+00     0.00000000e+00    
           6.81458274e-04     3.06265974e-05     0.00000000e+00    
           6.96909963e-04     3.57825083e-05     0.00000000e+00    
           7.09810236e-04     4.31185981e-05     0.00000000e+00    
           7.19362986e-04     5.19962487e-05     0.00000000e+00    
           7.25209655e-04     6.23914239e-05     0.00000000e+00    
           7.27590872e-04     7.34155474e-05     0.00000000e+00    
           7.25673686e-04     8.55370163e-05     0.00000000e+00    
           7.18970841e-04     9.76828305e-05     0.00000000e+00    
           7.08042237e-04     1.08095635e-04     0.00000000e+00    
           6.94792485e-04     1.15173898e-04     0.00000000e+00    
           6.79875433e-04     1.19286829e-04     0.00000000e+00    
           6.48297835e-04     1.17832926e-04     0.00000000e+00    
           6.33609481e-04     1.12695321e-04     0.00000000e+00    
           6.21349260e-04     1.05207480e-04     0.00000000e+00    
           6.12287084e-04     9.63555867e-05     0.00000000e+00    
           6.07164053e-04     8.64381727e-05     0.00000000e+00    
           6.05992333e-04     7.62057753e-05     0.00000000e+00    
           6.07599039e-04     6.65605839e-05     0.00000000e+00    
           6.11121650e-04     5.84729205e-05     0.00000000e+00    
           6.16868027e-04     5.12476363e-05     0.00000000e+00    
           6.29364338e-04     4.02901787e-05     0.00000000e+00    
           6.46434899e-04     3.21503830e-05     0.00000000e+00    
           6.14233490e-04     8.05299180e-07     0.00000000e+00    
           6.13626966e-04    -8.56248334e-06     0.00000000e+00    
           6.16418140e-04    -1.94774948e-05     0.00000000e+00    
           6.23367669e-04    -3.07069822e-05     0.00000000e+00    
           6.33681542e-04    -4.08225169e-05     0.00000000e+00    
           6.46588742e-04    -4.82616415e-05     0.00000000e+00    
           6.61284314e-04    -5.24904353e-05     0.00000000e+00    
           6.92261849e-04    -5.22294613e-05     0.00000000e+00    
           7.05610437e-04    -4.80159870e-05     0.00000000e+00    
           7.16906216e-04    -4.16952535e-05     0.00000000e+00    
           7.25497026e-04    -3.33940188e-05     0.00000000e+00    
           7.31829554e-04    -2.39195742e-05     0.00000000e+00    
           7.35575217e-04    -1.42282797e-05     0.00000000e+00    
           7.36130401e-04    -4.58430850e-06     0.00000000e+00    
           7.26590340e-04     1.59409756e-05     0.00000000e+00    
           7.13514513e-04     2.66738462e-05     0.00000000e+00    
           6.97299838e-04     3.47224122e-05     0.00000000e+00    
           6.80114608e-04     3.82269027e-05     0.00000000e+00    
           6.62718085e-04     3.72966169e-05     0.00000000e+00    
           6.46195200e-04     3.24999965e-05     0.00000000e+00    
           6.32325013e-04     2.49810782e-05     0.00000000e+00    
           6.23113825e-04     1.61512980e-05     0.00000000e+00    
           9.54130257e-04     7.63940916e-05     0.00000000e+00    
           9.32086725e-04     7.56773297e-05     0.00000000e+00    
           9.11548093e-04     7.10793611e-05     0.00000000e+00    
           8.94006400e-04     6.30943832e-05     0.00000000e+00    
           8.80062405e-04     5.20696813e-05     0.00000000e+00    
           8.69402196e-04     3.89377710e-05     0.00000000e+00    
           8.62321351e-04     2.49230598e-05     0.00000000e+00    
           8.60267901e-04    -2.47639809e-06     0.00000000e+00    
           8.65954324e-04    -1.67194503e-05     0.00000000e+00    
           8.77646729e-04    -3.21386433e-05     0.00000000e+00    
           8.94101977e-04    -4.62312128e-05     0.00000000e+00    
           9.12681280e-04    -5.61107518e-05     0.00000000e+00    
           9.32159310e-04    -6.08447772e-05     0.00000000e+00    
           9.52706498e-04    -6.10788702e-05     0.00000000e+00    
          -6.69627070e-06    -4.89312952e-05     0.00000000e+00    
           1.01802370e-05    -3.75135096e-05     0.00000000e+00    
           2.30365349e-05    -2.39820474e-05     0.00000000e+00    
           3.14903009e-05    -1.01072374e-05     0.00000000e+00    
           3.48135400e-05     4.77220692e-06     0.00000000e+00    
           3.38718273e-05     1.96241399e-05     0.00000000e+00    
           2.62333597e-05     3.65889646e-05     0.00000000e+00    
           1.30971157e-05     5.25427095e-05     0.00000000e+00    
          -4.20919969e-06     6.49772337e-05     0.00000000e+00    
           9.21797007e-04    -1.37573516e-05     0.00000000e+00    
           9.12445306e-04    -1.16278352e-05     0.00000000e+00    
           9.01979278e-04    -1.14749009e-05     0.00000000e+00    
           8.90736468e-04    -1.33904105e-05     0.00000000e+00    
           8.79081723e-04    -1.80658444e-05     0.00000000e+00    
           8.69867392e-04    -2.46088312e-05     0.00000000e+00    
           8.64437141e-04    -3.09034294e-05     0.00000000e+00    
           8.62042303e-04    -3.57360441e-05     0.00000000e+00    
           8.64413916e-04    -4.45836595e-05     0.00000000e+00    
           8.68524075e-04    -4.87503094e-05     0.00000000e+00    
           8.74369522e-04    -5.21328075e-05     0.00000000e+00    
           8.81238782e-04    -5.48072494e-05     0.00000000e+00    
           8.88672075e-04    -5.63209687e-05     0.00000000e+00    
           8.97241931e-04    -5.73017787e-05     0.00000000e+00    
           9.06537753e-04    -5.74644146e-05     0.00000000e+00    
           9.16377758e-04    -5.64129259e-05     0.00000000e+00    
          -6.65749176e-05    -4.90018065e-05     0.00000000e+00    
          -6.09849667e-05    -4.34092726e-05     0.00000000e+00    
          -5.81119421e-05    -3.75540876e-05     0.00000000e+00    
          -5.88577241e-05    -3.09330426e-05     0.00000000e+00    
          -6.29521892e-05    -2.41358939e-05     0.00000000e+00    
           1.89404629e-04    -2.47062890e-05     0.00000000e+00    
           2.08072670e-04    -1.74706493e-05     0.00000000e+00    
           2.23131661e-04    -7.77010791e-06     0.00000000e+00    
           2.35107509e-04     4.20816104e-06     0.00000000e+00    
           2.43847811e-04     1.83811007e-05     0.00000000e+00    
           2.48317723e-04     3.38913014e-05     0.00000000e+00    
           2.48280267e-04     4.99560483e-05     0.00000000e+00    
           2.41650370e-04     6.65218831e-05     0.00000000e+00    
           2.27868761e-04     8.31799989e-05     0.00000000e+00    
           2.09036254e-04     9.69021639e-05     0.00000000e+00    
           1.87667640e-04     1.05323197e-04     0.00000000e+00    
           1.43198355e-04     1.05878942e-04     0.00000000e+00    
           1.22602229e-04     9.91257330e-05     0.00000000e+00    
           1.05056941e-04     8.84347173e-05     0.00000000e+00    
           9.17571306e-05     7.44521458e-05     0.00000000e+00    
           8.36053368e-05     5.81418353e-05     0.00000000e+00    
           8.08167533e-05     4.05365827e-05     0.00000000e+00    
           8.36722393e-05     2.22046674e-05     0.00000000e+00    
           9.29209418e-05     4.62987828e-06     0.00000000e+00    
           1.06894127e-04    -9.67609412e-06     0.00000000e+00    
           1.24925515e-04    -1.98743364e-05     0.00000000e+00    
           1.45907834e-04    -2.59148601e-05     0.00000000e+00    
           9.11306997e-04    -4.21324194e-06     0.00000000e+00    
           9.21293104e-04     8.92976186e-06     0.00000000e+00    
           9.27511021e-04     2.43481591e-05     0.00000000e+00    
           9.28280759e-04     4.16227194e-05     0.00000000e+00    
           9.22975014e-04     5.95402489e-05     0.00000000e+00    
           9.12855437e-04     7.55433284e-05     0.00000000e+00    
           8.99043283e-04     8.81640735e-05     0.00000000e+00    
           8.83224595e-04     9.69470930e-05     0.00000000e+00    
           8.66371382e-04     1.01722886e-04     0.00000000e+00    
           8.28712131e-04     1.00861856e-04     0.00000000e+00    
           8.09308491e-04     9.47526132e-05     0.00000000e+00    
           7.92208419e-04     8.51034274e-05     0.00000000e+00    
           7.79040158e-04     7.29049498e-05     0.00000000e+00    
           7.70776300e-04     5.88993971e-05     0.00000000e+00    
           7.66600540e-04     4.43096869e-05     0.00000000e+00    
           7.66304554e-04     2.97402148e-05     0.00000000e+00    
           7.69796083e-04     1.61738935e-05     0.00000000e+00    
           7.79014779e-04     2.15454406e-06     0.00000000e+00    
           8.12261424e-04    -2.09558402e-05     0.00000000e+00    
           8.30765464e-04    -2.63242127e-05     0.00000000e+00    
           8.49512406e-04    -2.78426232e-05     0.00000000e+00    
           8.67454801e-04    -2.58853815e-05     0.00000000e+00    
           8.83763831e-04    -2.12508021e-05     0.00000000e+00    
           7.76339730e-04    -8.00964481e-05     0.00000000e+00    
           7.95335567e-04    -7.30184256e-05     0.00000000e+00    
           8.12311308e-04    -6.30081922e-05     0.00000000e+00    
           8.23961222e-04    -5.11447251e-05     0.00000000e+00    
           8.31405050e-04    -3.95548923e-05     0.00000000e+00    
           8.34534410e-04    -2.82358287e-05     0.00000000e+00    
           8.34425911e-04    -1.64688536e-05     0.00000000e+00    
           8.31422803e-04    -3.75015929e-06     0.00000000e+00    
           8.22693459e-04     1.02023023e-05     0.00000000e+00    
           8.08270823e-04     2.45493047e-05     0.00000000e+00    
           7.90387916e-04     3.56860146e-05     0.00000000e+00    
           7.71051913e-04     4.21582081e-05     0.00000000e+00    
           7.31854409e-04     4.27857340e-05     0.00000000e+00    
           7.14918599e-04     3.75510754e-05     0.00000000e+00    
           7.00418954e-04     3.01409309e-05     0.00000000e+00    
           6.88422006e-04     1.97681147e-05     0.00000000e+00    
           6.79282879e-04     7.09342521e-06     0.00000000e+00    
           6.73479633e-04    -7.02160378e-06     0.00000000e+00    
           6.72656577e-04    -2.24220857e-05     0.00000000e+00    
           6.77536882e-04    -3.81325699e-05     0.00000000e+00    
           6.87271648e-04    -5.31532241e-05     0.00000000e+00    
           7.01073324e-04    -6.60109581e-05     0.00000000e+00    
           7.17818388e-04    -7.53923232e-05     0.00000000e+00    
           7.36542512e-04    -8.10466081e-05     0.00000000e+00    
           8.84868205e-04     5.19390924e-05     0.00000000e+00    
           8.95219971e-04     5.48955468e-05     0.00000000e+00    
           9.03799490e-04     5.97224644e-05     0.00000000e+00    
           9.09518159e-04     6.59001671e-05     0.00000000e+00    
           9.11988900e-04     7.26410217e-05     0.00000000e+00    
           9.11295472e-04     7.94813459e-05     0.00000000e+00    
           9.07568668e-04     8.58519707e-05     0.00000000e+00    
           9.01492604e-04     9.09865194e-05     0.00000000e+00    
           8.93836201e-04     9.46231448e-05     0.00000000e+00    
           8.85808084e-04     9.61843180e-05     0.00000000e+00    
           8.67159921e-04     9.75975781e-05     0.00000000e+00    
           8.57351813e-04     9.64917344e-05     0.00000000e+00    
           8.48460302e-04     9.35639619e-05     0.00000000e+00    
           8.41098081e-04     8.93299875e-05     0.00000000e+00    
           8.36582796e-04     8.29564015e-05     0.00000000e+00    
           8.35798273e-04     7.49373212e-05     0.00000000e+00    
           8.39272281e-04     6.61409431e-05     0.00000000e+00    
           8.46299750e-04     5.85825001e-05     0.00000000e+00    
           8.54458078e-04     5.38887361e-05     0.00000000e+00    
           8.63503374e-04     5.17904555e-05     0.00000000e+00    
           3.17185652e-04    -9.62256399e-06     0.00000000e+00    
           3.27348855e-04    -7.81853305e-06     0.00000000e+00    
           3.35768098e-04    -3.93138453e-06     0.00000000e+00    
           3.43205931e-04     2.45623141e-06     0.00000000e+00    
           3.47327819e-04     1.04460205e-05     0.00000000e+00    
           3.48474976e-04     1.80961742e-05     0.00000000e+00    
           3.46998626e-04     2.52912723e-05     0.00000000e+00    
           3.41817649e-04     3.28608039e-05     0.00000000e+00    
           3.33199045e-04     3.82075050e-05     0.00000000e+00    
           3.22933600e-04     4.19542157e-05     0.00000000e+00    
           3.10931529e-04     4.47325729e-05     0.00000000e+00    
           2.86907511e-04     4.41998600e-05     0.00000000e+00    
           2.77300976e-04     4.10346001e-05     0.00000000e+00    
           2.70162098e-04     3.66427776e-05     0.00000000e+00    
           2.64653703e-04     3.10922151e-05     0.00000000e+00    
           2.60898029e-04     2.45798219e-05     0.00000000e+00    
           2.59333116e-04     1.74841589e-05     0.00000000e+00    
           2.61077483e-04     1.01213500e-05     0.00000000e+00    
           2.65809678e-04     3.15251395e-06     0.00000000e+00    
           2.73396639e-04    -2.50533913e-06     0.00000000e+00    
           2.82897614e-04    -6.90002980e-06     0.00000000e+00    
           2.93844234e-04    -9.48698744e-06     0.00000000e+00    
           1.53635512e-04     6.68852590e-05     0.00000000e+00    
           1.43583587e-04     5.68891155e-05     0.00000000e+00    
           1.36821138e-04     4.45867772e-05     0.00000000e+00    
           1.34086731e-04     3.06104848e-05     0.00000000e+00    
           1.36720380e-04     1.57869163e-05     0.00000000e+00    
           1.46898150e-04    -5.17660681e-07     0.00000000e+00    
           1.61713033e-04    -1.44230980e-05     0.00000000e+00    
           1.78948379e-04    -2.39052733e-05     0.00000000e+00    
           1.96892885e-04    -2.92708846e-05     0.00000000e+00    
           2.31158789e-04    -2.92284785e-05     0.00000000e+00    
           2.46136013e-04    -2.50103240e-05     0.00000000e+00    
           2.60019209e-04    -1.75677378e-05     0.00000000e+00    
           2.71911180e-04    -6.83919689e-06     0.00000000e+00    
           2.80600972e-04     6.92770300e-06     0.00000000e+00    
           2.84203998e-04     2.22434282e-05     0.00000000e+00    
           2.82888213e-04     3.78282166e-05     0.00000000e+00    
           2.76868173e-04     5.26567892e-05     0.00000000e+00    
           2.66546645e-04     6.54325195e-05     0.00000000e+00    
           2.36014646e-04     8.23492664e-05     0.00000000e+00    
           2.17791603e-04     8.52867452e-05     0.00000000e+00    
           1.98773094e-04     8.55912149e-05     0.00000000e+00    
           1.80969830e-04     8.17613836e-05     0.00000000e+00    
           5.05869277e-04    -5.19489149e-05     0.00000000e+00    
           5.18182467e-04    -4.78548609e-05     0.00000000e+00    
           5.28928882e-04    -4.17326955e-05     0.00000000e+00    
           5.38312655e-04    -3.35764416e-05     0.00000000e+00    
           5.45269169e-04    -2.40450318e-05     0.00000000e+00    
           5.48500218e-04    -1.32623209e-05     0.00000000e+00    
           5.47607488e-04    -1.47107926e-06     0.00000000e+00    
           5.42149006e-04     1.08766735e-05     0.00000000e+00    
           5.32967213e-04     2.21425562e-05     0.00000000e+00    
           5.21547103e-04     3.04906807e-05     0.00000000e+00    
           5.07849560e-04     3.58116231e-05     0.00000000e+00    
           4.75839246e-04     3.83621009e-05     0.00000000e+00    
           4.60412470e-04     3.47542627e-05     0.00000000e+00    
           4.46840539e-04     2.78717125e-05     0.00000000e+00    
           4.36393748e-04     1.77524125e-05     0.00000000e+00    
           4.29660926e-04     5.55432143e-06     0.00000000e+00    
           4.27348685e-04    -7.77155947e-06     0.00000000e+00    
           4.29656269e-04    -2.09777809e-05     0.00000000e+00    
           4.36348724e-04    -3.25761212e-05     0.00000000e+00    
           4.46975318e-04    -4.22166122e-05     0.00000000e+00    