<?xml version="1.0"?>
<VTKFile type="UnstructuredGrid" version="0.1">
  <UnstructuredGrid>
    <Piece NumberOfPoints="1034" NumberOfCells="1614">
      <Points>
        <DataArray type="Float32" NumberOfComponents="3">
           5.21582007e-01     5.11657000e-01     0.00000000e+00    
           5.07319987e-01     5.11657000e-01     0.00000000e+00    
           4.65243995e-01     5.17907977e-01     0.00000000e+00    
           4.65243995e-01     5.04921973e-01     0.00000000e+00    
           4.75246996e-01     5.11415005e-01     0.00000000e+00    
           5.33852994e-01     5.04921973e-01     0.00000000e+00    
           5.33852994e-01     5.17907977e-01     0.00000000e+00    
           4.83779997e-01     5.34618974e-01     0.00000000e+00    
           4.68984991e-01     5.34618974e-01     0.00000000e+00    
           4.76381987e-01     5.23841977e-01     0.00000000e+00    
           4.68984991e-01     4.66010004e-01     0.00000000e+00    
           4.83779997e-01     4.66010004e-01     0.00000000e+00    
           4.99920011e-01     5.34618974e-01     0.00000000e+00    
           4.89203990e-01     5.34618974e-01     0.00000000e+00    
           4.94562000e-01     5.22280991e-01     0.00000000e+00    
           4.89203990e-01     4.66010004e-01     0.00000000e+00    
           4.99920011e-01     4.66010004e-01     0.00000000e+00    
           5.32517016e-01     4.74112004e-01     0.00000000e+00    
           5.17961025e-01     4.74112004e-01     0.00000000e+00    
           5.33852994e-01     5.19801974e-01     0.00000000e+00    
           5.33852994e-01     5.29603004e-01     0.00000000e+00    
           5.19536972e-01     5.24702013e-01     0.00000000e+00    
           4.65243995e-01     5.29603004e-01     0.00000000e+00    
           4.65243995e-01     5.19801974e-01     0.00000000e+00    
           4.92487997e-01     5.17117977e-01     0.00000000e+00    
           4.76904988e-01     5.17117977e-01     0.00000000e+00    
           5.17996013e-01     5.27033985e-01     0.00000000e+00    
           5.04473984e-01     5.27033985e-01     0.00000000e+00    
           5.08446991e-01     4.83435005e-01     0.00000000e+00    
           4.94414002e-01     4.83435005e-01     0.00000000e+00    
           4.65243995e-01     4.83101994e-01     0.00000000e+00    
           4.65243995e-01     4.74415004e-01     0.00000000e+00    
           4.78336990e-01     4.78758007e-01     0.00000000e+00    
           5.33852994e-01     4.74415004e-01     0.00000000e+00    
           5.33852994e-01     4.83101994e-01     0.00000000e+00    
           4.80668008e-01     4.95810986e-01     0.00000000e+00    
           4.66084987e-01     4.95810986e-01     0.00000000e+00    
           4.93930012e-01     4.79214013e-01     0.00000000e+00    
           4.78967011e-01     4.79214013e-01     0.00000000e+00    
           5.09284973e-01     4.97658014e-01     0.00000000e+00    
           4.95503992e-01     4.97658014e-01     0.00000000e+00    
           5.33011973e-01     5.01751006e-01     0.00000000e+00    
           5.17829001e-01     5.01751006e-01     0.00000000e+00    
           4.95451003e-01     5.00564992e-01     0.00000000e+00    
           4.80922014e-01     5.00564992e-01     0.00000000e+00    
           5.25367022e-01     4.88312006e-01     0.00000000e+00    
           5.09521008e-01     4.88312006e-01     0.00000000e+00    
           4.65243995e-01     5.34618974e-01     0.00000000e+00    
           4.65243995e-01     4.66010004e-01     0.00000000e+00    
           5.33852994e-01     4.66010004e-01     0.00000000e+00    
           5.33852994e-01     5.34618974e-01     0.00000000e+00    
           5.21338999e-01     5.13502657e-01     0.00000000e+00    
           5.20626605e-01     5.15222490e-01     0.00000000e+00    
           5.19493401e-01     5.16699374e-01     0.00000000e+00    
           5.18016517e-01     5.17832637e-01     0.00000000e+00    
           5.16296625e-01     5.18545032e-01     0.00000000e+00    
           5.14451027e-01     5.18787980e-01     0.00000000e+00    
           5.12605369e-01     5.18545032e-01     0.00000000e+00    
           5.10885477e-01     5.17832637e-01     0.00000000e+00    
           5.09408593e-01     5.16699374e-01     0.00000000e+00    
           5.08275390e-01     5.15222490e-01     0.00000000e+00    
           5.07562995e-01     5.13502657e-01     0.00000000e+00    
           5.07562995e-01     5.09811342e-01     0.00000000e+00    
           5.08275390e-01     5.08091509e-01     0.00000000e+00    
           5.09408593e-01     5.06614625e-01     0.00000000e+00    
           5.10885477e-01     5.05481362e-01     0.00000000e+00    
           5.12605369e-01     5.04768968e-01     0.00000000e+00    
           5.14451027e-01     5.04526019e-01     0.00000000e+00    
           5.16296625e-01     5.04768968e-01     0.00000000e+00    
           5.18016517e-01     5.05481362e-01     0.00000000e+00    
           5.19493401e-01     5.06614625e-01     0.00000000e+00    
           5.20626605e-01     5.08091509e-01     0.00000000e+00    
           5.21338999e-01     5.09811342e-01     0.00000000e+00    
           4.66931671e-01     5.04409373e-01     0.00000000e+00    
           4.68693614e-01     5.04328012e-01     0.00000000e+00    
           4.70421344e-01     5.04682958e-01     0.00000000e+00    
           4.72008497e-01     5.05452335e-01     0.00000000e+00    
           4.73357379e-01     5.06588817e-01     0.00000000e+00    
           4.74384934e-01     5.08022368e-01     0.00000000e+00    
           4.75027919e-01     5.09664834e-01     0.00000000e+00    
           4.75028187e-01     5.13165236e-01     0.00000000e+00    
           4.74385172e-01     5.14807761e-01     0.00000000e+00    
           4.73357558e-01     5.16241372e-01     0.00000000e+00    
           4.72008646e-01     5.17377913e-01     0.00000000e+00    
           4.70421433e-01     5.18147290e-01     0.00000000e+00    
           4.68693614e-01     5.18502235e-01     0.00000000e+00    
           4.66931641e-01     5.18420875e-01     0.00000000e+00    
           5.32303810e-01     5.16964078e-01     0.00000000e+00    
           5.31043947e-01     5.15658796e-01     0.00000000e+00    
           5.30155540e-01     5.14077127e-01     0.00000000e+00    
           5.29696345e-01     5.12322068e-01     0.00000000e+00    
           5.29696345e-01     5.10507941e-01     0.00000000e+00    
           5.30155540e-01     5.08752882e-01     0.00000000e+00    
           5.31043947e-01     5.07171214e-01     0.00000000e+00    
           5.32303810e-01     5.05865932e-01     0.00000000e+00    
           4.68517244e-01     5.32760799e-01     0.00000000e+00    
           4.68509018e-01     5.30844629e-01     0.00000000e+00    
           4.68960851e-01     5.28982460e-01     0.00000000e+00    
           4.69846308e-01     5.27283132e-01     0.00000000e+00    
           4.71113682e-01     5.25845945e-01     0.00000000e+00    
           4.72688884e-01     5.24754822e-01     0.00000000e+00    
           4.74479854e-01     5.24073541e-01     0.00000000e+00    
           4.78284091e-01     5.24073601e-01     0.00000000e+00    
           4.80075032e-01     5.24754822e-01     0.00000000e+00    
           4.81650203e-01     5.25845885e-01     0.00000000e+00    
           4.82917547e-01     5.27283013e-01     0.00000000e+00    
           4.83803004e-01     5.28982282e-01     0.00000000e+00    
           4.84254897e-01     5.30844331e-01     0.00000000e+00    
           4.84246761e-01     5.32760441e-01     0.00000000e+00    
           4.82887864e-01     4.67691004e-01     0.00000000e+00    
           4.81620818e-01     4.69110936e-01     0.00000000e+00    
           4.80051905e-01     4.70188022e-01     0.00000000e+00    
           4.78271484e-01     4.70860153e-01     0.00000000e+00    
           4.76382166e-01     4.71088618e-01     0.00000000e+00    
           4.74492878e-01     4.70860243e-01     0.00000000e+00    
           4.72712427e-01     4.70188200e-01     0.00000000e+00    
           4.71143454e-01     4.69111174e-01     0.00000000e+00    
           4.69876349e-01     4.67691302e-01     0.00000000e+00    
           4.88103986e-01     5.33086061e-01     0.00000000e+00    
           4.87431526e-01     5.31323195e-01     0.00000000e+00    
           4.87231195e-01     5.29447019e-01     0.00000000e+00    
           4.87516224e-01     5.27581930e-01     0.00000000e+00    
           4.88267750e-01     5.25851250e-01     0.00000000e+00    
           4.89436030e-01     5.24369657e-01     0.00000000e+00    
           4.90943670e-01     5.23235261e-01     0.00000000e+00    
           4.92690891e-01     5.22523046e-01     0.00000000e+00    
           4.96432930e-01     5.22523701e-01     0.00000000e+00    
           4.98180002e-01     5.23235798e-01     0.00000000e+00    
           4.99687493e-01     5.24370134e-01     0.00000000e+00    
           5.00855684e-01     5.25851607e-01     0.00000000e+00    
           5.01607120e-01     5.27582109e-01     0.00000000e+00    
           5.01892149e-01     5.29447079e-01     0.00000000e+00    
           5.01691818e-01     5.31323016e-01     0.00000000e+00    
           5.01019418e-01     5.33085763e-01     0.00000000e+00    
           4.98371124e-01     4.67269689e-01     0.00000000e+00    
           4.96539861e-01     4.68064904e-01     0.00000000e+00    
           4.94562000e-01     4.68336672e-01     0.00000000e+00    
           4.92584139e-01     4.68064904e-01     0.00000000e+00    
           4.90752876e-01     4.67269689e-01     0.00000000e+00    
           5.32269001e-01     4.75995690e-01     0.00000000e+00    
           5.31541944e-01     4.77750987e-01     0.00000000e+00    
           5.30385315e-01     4.79258329e-01     0.00000000e+00    
           5.28877974e-01     4.80414927e-01     0.00000000e+00    
[...]
      <PointData>
        <DataArray type="Float32" Name="Displacement" NumberOfComponents="3">
           4.27515100e-04     1.34790380e-05     0.00000000e+00    
           4.27215826e-04     7.40723335e-05     0.00000000e+00    
           4.70909494e-04    -1.69028158e-06     0.00000000e+00    
           3.94777715e-04    -9.71543912e-08     0.00000000e+00    
           4.33882728e-04    -3.76881544e-05     0.00000000e+00    
           3.94777715e-04    -9.71543912e-08     0.00000000e+00    
           4.70909494e-04    -1.69028158e-06     0.00000000e+00    
           6.35475677e-04    -3.89555389e-05     0.00000000e+00    
           6.36788900e-04     4.65496851e-05     0.00000000e+00    
           5.58657572e-04     6.01310603e-06     0.00000000e+00    
          -1.32111190e-05     4.65496851e-05     0.00000000e+00    
          -1.45243184e-05    -3.89555389e-05     0.00000000e+00    
           6.02271641e-04    -3.67131724e-05     0.00000000e+00    
           6.05532085e-04    -1.10702331e-05     0.00000000e+00    
           5.57161693e-04    -2.73250153e-05     0.00000000e+00    
          -4.44679099e-05    -1.10702331e-05     0.00000000e+00    
          -4.77283320e-05    -3.67131724e-05     0.00000000e+00    
           1.08231870e-04    -1.18133530e-05     0.00000000e+00    
           1.05919360e-04     6.46134431e-05     0.00000000e+00    
           5.14887332e-04    -1.06316757e-05     0.00000000e+00    
           5.83794434e-04    -1.21312032e-05     0.00000000e+00    
           5.50550758e-04     6.44710526e-05     0.00000000e+00    
           5.83794434e-04    -1.21312032e-05     0.00000000e+00    
           5.14887332e-04    -1.06316757e-05     0.00000000e+00    
           4.88181802e-04    -5.38095337e-05     0.00000000e+00    
           4.83867654e-04     2.98416307e-05     0.00000000e+00    
           5.67590760e-04     2.85907754e-05     0.00000000e+00    
           5.69471216e-04     5.79385960e-05     0.00000000e+00    
           1.97933958e-04    -7.75648641e-06     0.00000000e+00    
           1.91488667e-04     2.65774470e-05     0.00000000e+00    
           1.58247436e-04     4.13085254e-05     0.00000000e+00    
           1.07697000e-04     4.01825273e-05     0.00000000e+00    
           1.36967428e-04    -1.78298960e-05     0.00000000e+00    
           1.07697000e-04     4.01825273e-05     0.00000000e+00    
           1.58247436e-04     4.13085254e-05     0.00000000e+00    
           3.12862452e-04    -3.50324081e-05     0.00000000e+00    
           3.12960648e-04     2.24575706e-05     0.00000000e+00    
           1.53918678e-04    -3.49797483e-05     0.00000000e+00    
           1.46054721e-04     1.08436170e-05     0.00000000e+00    
           3.07665439e-04     4.52280165e-06     0.00000000e+00    
           3.13465804e-04     1.57419454e-05     0.00000000e+00    
           3.59753642e-04    -2.14286811e-05     0.00000000e+00    
           3.60865088e-04     4.80529561e-05     0.00000000e+00    
           3.22760578e-04    -1.81953692e-05     0.00000000e+00    
           3.26625741e-04    -3.82568317e-07     0.00000000e+00    
           2.36688778e-04     5.34155106e-06     0.00000000e+00    
           2.35579922e-04     7.99043410e-05     0.00000000e+00    
           6.50000002e-04     0.00000000e+00     0.00000000e+00    
           0.00000000e+00     0.00000000e+00     0.00000000e+00    
           0.00000000e+00     0.00000000e+00     0.00000000e+00    
           6.50000002e-04     0.00000000e+00     0.00000000e+00    
           4.39204392e-04     1.45040485e-05     0.00000000e+00    
           4.49774612e-04     1.79942836e-05     0.00000000e+00    
           4.58603899e-04     2.28879780e-05     0.00000000e+00    
           4.65122575e-04     2.87060957e-05     0.00000000e+00    
           4.69130900e-04     3.54945041e-05     0.00000000e+00    
           4.70824307e-04     4.27669438e-05     0.00000000e+00    
           4.69523424e-04     5.08918638e-05     0.00000000e+00    
           4.64851590e-04     5.90957607e-05     0.00000000e+00    
           4.57346265e-04     6.60873848e-05     0.00000000e+00    
           4.48263920e-04     7.08257649e-05     0.00000000e+00    
           4.38019109e-04     7.35259382e-05     0.00000000e+00    
           4.16469440e-04     7.23033518e-05     0.00000000e+00    
           4.06488194e-04     6.87255524e-05     0.00000000e+00    
           3.98192002e-04     6.36306504e-05     0.00000000e+00    
           3.92130576e-04     5.77364553e-05     0.00000000e+00    
           3.88789980e-04     5.12127845e-05     0.00000000e+00    
           3.88097542e-04     4.45697660e-05     0.00000000e+00    
           3.89219000e-04     3.83785300e-05     0.00000000e+00    
           3.91555572e-04     3.32211494e-05     0.00000000e+00    
           3.95307317e-04     2.86176346e-05     0.00000000e+00    
           4.03716229e-04     2.11509687e-05     0.00000000e+00    
           4.15306655e-04     1.55565158e-05     0.00000000e+00    
           3.93042137e-04    -4.27217628e-06     0.00000000e+00    
           3.92719754e-04    -9.73095393e-06     0.00000000e+00    
           3.94513016e-04    -1.63853474e-05     0.00000000e+00    
           3.99020326e-04    -2.33865594e-05     0.00000000e+00    
           4.05689178e-04    -2.97501319e-05     0.00000000e+00    
           4.14078240e-04    -3.44012915e-05     0.00000000e+00    
           4.23640595e-04    -3.69770205e-05     0.00000000e+00    
           4.43753990e-04    -3.66412569e-05     0.00000000e+00    
           4.52311622e-04    -3.41103041e-05     0.00000000e+00    
           4.59542731e-04    -3.03304205e-05     0.00000000e+00    
           4.65053483e-04    -2.52926420e-05     0.00000000e+00    
           4.69198392e-04    -1.94707154e-05     0.00000000e+00    
           4.71728126e-04    -1.35121863e-05     0.00000000e+00    
           4.72206768e-04    -7.54929579e-06     0.00000000e+00    
           4.66184574e-04     5.46555839e-06     0.00000000e+00    
           4.57591406e-04     1.23380714e-05     0.00000000e+00    
           4.46888123e-04     1.74409215e-05     0.00000000e+00    
           4.35503956e-04     1.95457324e-05     0.00000000e+00    
           4.23896709e-04     1.87024289e-05     0.00000000e+00    
           4.12797410e-04     1.51485274e-05     0.00000000e+00    
           4.03104845e-04     9.40859536e-06     0.00000000e+00    
           3.97702563e-04     3.85605608e-06     0.00000000e+00    
           6.21896179e-04     4.87093566e-05     0.00000000e+00    
           6.07074995e-04     4.80999151e-05     0.00000000e+00    
           5.93355100e-04     4.50238513e-05     0.00000000e+00    
           5.81697794e-04     3.98312659e-05     0.00000000e+00    
           5.72451332e-04     3.26635782e-05     0.00000000e+00    
           5.65337017e-04     2.41192647e-05     0.00000000e+00    
           5.60570974e-04     1.50175647e-05     0.00000000e+00    
           5.59107051e-04    -2.66654274e-06     0.00000000e+00    
           5.62846777e-04    -1.19912775e-05     0.00000000e+00    
           5.70658303e-04    -2.22451381e-05     0.00000000e+00    
           5.81693079e-04    -3.17168633e-05     0.00000000e+00    
           5.94192999e-04    -3.83468032e-05     0.00000000e+00    
           6.07355905e-04    -4.15425129e-05     0.00000000e+00    
           6.21290819e-04    -4.16837465e-05     0.00000000e+00    
          -1.10660176e-06    -3.34579563e-05     0.00000000e+00    
           1.03596194e-05    -2.58135879e-05     0.00000000e+00    
           1.90398368e-05    -1.69410487e-05     0.00000000e+00    
           2.46766049e-05    -7.94075459e-06     0.00000000e+00    
           2.69359862e-05     1.67313090e-06     0.00000000e+00    
           2.63861366e-05     1.12945590e-05     0.00000000e+00    
           2.11582465e-05     2.25112999e-05     0.00000000e+00    
           1.20183331e-05     3.31295050e-05     0.00000000e+00    
           1.94686507e-07     4.13414200e-05     0.00000000e+00    
           5.99735882e-04    -8.11312748e-06     0.00000000e+00    
           5.93060337e-04    -6.61034755e-06     0.00000000e+00    
           5.85565111e-04    -6.51739401e-06     0.00000000e+00    
           5.77441358e-04    -7.92487936e-06     0.00000000e+00    
           5.68936870e-04    -1.13877932e-05     0.00000000e+00    
           5.62057423e-04    -1.64157682e-05     0.00000000e+00    
           5.58152795e-04    -2.10539783e-05     0.00000000e+00    
           5.56757906e-04    -2.43572103e-05     0.00000000e+00    
           5.58796513e-04    -3.04106070e-05     0.00000000e+00    
           5.61753754e-04    -3.32636555e-05     0.00000000e+00    
           5.65922121e-04    -3.55923439e-05     0.00000000e+00    
           5.70808363e-04    -3.74125084e-05     0.00000000e+00    
           5.76045422e-04    -3.83994338e-05     0.00000000e+00    
           5.81997214e-04    -3.90478272e-05     0.00000000e+00    
           5.88554074e-04    -3.92868315e-05     0.00000000e+00    
           5.95633930e-04    -3.86492538e-05     0.00000000e+00    
          -4.19982571e-05    -3.34162542e-05     0.00000000e+00    
          -3.78772565e-05    -2.93552475e-05     0.00000000e+00    
          -3.57694516e-05    -2.50159537e-05     0.00000000e+00    
          -3.62900646e-05    -2.01668045e-05     0.00000000e+00    
          -3.93712471e-05    -1.53554356e-05     0.00000000e+00    
           1.20670695e-04    -9.94384663e-06     0.00000000e+00    
           1.31211040e-04    -6.05180367e-06     0.00000000e+00    
           1.39727505e-04    -1.49588209e-06     0.00000000e+00    
           1.46918683e-04     4.67959626e-06     0.00000000e+00    
           1.52396664e-04     1.23629352e-05     0.00000000e+00    
           1.55445829e-04     2.09397604e-05     0.00000000e+00    
           1.55903879e-04     2.99931216e-05     0.00000000e+00    
           1.52210807e-04     3.96066316e-05     0.00000000e+00    
           1.43923375e-04     4.96105313e-05     0.00000000e+00    
           1.32470901e-04     5.79218831e-05     0.00000000e+00    
           1.19480108e-04     6.30104405e-05     0.00000000e+00    
           9.25209533e-05     6.34077296e-05     0.00000000e+00    
           8.00743801e-05     5.94883677e-05     0.00000000e+00    
           6.95017443e-05     5.33195162e-05     0.00000000e+00    
           6.15351528e-05     4.52764325e-05     0.00000000e+00    
           5.66742310e-05     3.58797151e-05     0.00000000e+00    
           5.50595178e-05     2.56257390e-05     0.00000000e+00    
           5.70073498e-05     1.48626796e-05     0.00000000e+00    
           6.27930713e-05     4.71003887e-06     0.00000000e+00    
           7.13530317e-05    -3.36342396e-06     0.00000000e+00    
           8.23222508e-05    -8.87694205e-06     0.00000000e+00    
           9.50541871e-05    -1.17917134e-05     0.00000000e+00    
           5.92554337e-04    -5.32732247e-06     0.00000000e+00    
           5.99144085e-04     3.22667097e-06     0.00000000e+00    
           6.03310764e-04     1.32726136e-05     0.00000000e+00    
           6.03899360e-04     2.45364172e-05     0.00000000e+00    
           6.00380241e-04     3.62395222e-05     0.00000000e+00    
           5.93595963e-04     4.66888159e-05     0.00000000e+00    
           5.84371446e-04     5.48834214e-05     0.00000000e+00    
           5.73829049e-04     6.05808564e-05     0.00000000e+00    
           5.62628731e-04     6.36469122e-05     0.00000000e+00    
           5.37486747e-04     6.29855349e-05     0.00000000e+00    
           5.24470408e-04     5.88943149e-05     0.00000000e+00    
           5.13017352e-04     5.25303294e-05     0.00000000e+00    
           5.04266645e-04     4.45956503e-05     0.00000000e+00    
           4.98797279e-04     3.54961776e-05     0.00000000e+00    
           4.96014138e-04     2.59959907e-05     0.00000000e+00    
           4.95766755e-04     1.64435460e-05     0.00000000e+00    
           4.97984583e-04     7.46703654e-06     0.00000000e+00    
           5.04107389e-04    -1.73951287e-06     0.00000000e+00    
           5.26494230e-04    -1.67926883e-05     0.00000000e+00    
           5.38987457e-04    -2.01738276e-05     0.00000000e+00    
           5.51588193e-04    -2.09785576e-05     0.00000000e+00    
           5.63581183e-04    -1.95095363e-05     0.00000000e+00    
           5.74412465e-04    -1.63889435e-05     0.00000000e+00    
           5.01728442e-04    -5.19407913e-05     0.00000000e+00    
           5.14686166e-04    -4.70029954e-05     0.00000000e+00    
           5.26286894e-04    -4.00177123e-05     0.00000000e+00    
           5.34018734e-04    -3.20960062e-05     0.00000000e+00    
           5.38649678e-04    -2.48050710e-05     0.00000000e+00    
           5.40496141e-04    -1.76871945e-05     0.00000000e+00    
           5.40352776e-04    -1.02229706e-05     0.00000000e+00    
           5.38382970e-04    -2.00662703e-06     0.00000000e+00    
           5.32501435e-04     7.16515569e-06     0.00000000e+00    
           5.22740476e-04     1.67195485e-05     0.00000000e+00    
           5.10563958e-04     2.41287580e-05     0.00000000e+00    
           4.97434579e-04     2.83585541e-05     0.00000000e+00    
           4.71010717e-04     2.86543400e-05     0.00000000e+00    
           4.59778996e-04     2.52929731e-05     0.00000000e+00    
           4.50209103e-04     2.06796431e-05     0.00000000e+00    
           4.42226534e-04     1.40765651e-05     0.00000000e+00    
           4.36038477e-04     5.92623883e-06     0.00000000e+00    
           4.31972032e-04    -3.22537198e-06     0.00000000e+00    
           4.31207009e-04    -1.33444064e-05     0.00000000e+00    
           4.34438552e-04    -2.38302364e-05     0.00000000e+00    
           4.41136071e-04    -3.39584767e-05     0.00000000e+00    
           4.50571999e-04    -4.26316001e-05     0.00000000e+00    
           4.61970456e-04    -4.89478407e-05     0.00000000e+00    
           4.74710338e-04    -5.27436641e-05     0.00000000e+00    
           5.74816833e-04     2.91825745e-05     0.00000000e+00    
           5.81788190e-04     3.11215044e-05     0.00000000e+00    
           5.87563904e-04     3.42684289e-05     0.00000000e+00    
           5.91374701e-04     3.82572725e-05     0.00000000e+00    
           5.92953467e-04     4.25972321e-05     0.00000000e+00    
           5.92355209e-04     4.69824117e-05     0.00000000e+00    
           5.89772826e-04     5.09752244e-05     0.00000000e+00    
           5.85695088e-04     5.41591871e-05     0.00000000e+00    
           5.80592954e-04     5.63692811e-05     0.00000000e+00    
           5.75312180e-04     5.72133431e-05     0.00000000e+00    
           5.63129084e-04     5.83655710e-05     0.00000000e+00    
           5.56528743e-04     5.78539439e-05     0.00000000e+00    
           5.50530152e-04     5.61264751e-05     0.00000000e+00    
           5.45541290e-04     5.35416584e-05     0.00000000e+00    
           5.42385213e-04     4.94875967e-05     0.00000000e+00    
           5.41709131e-04     4.42560777e-05     0.00000000e+00    
           5.44119452e-04     3.83586885e-05     0.00000000e+00    
           5.48957556e-04     3.33651478e-05     0.00000000e+00    
           5.54466737e-04     3.03533307e-05     0.00000000e+00    
           5.60528191e-04     2.90620355e-05     0.00000000e+00    
           2.05786535e-04    -7.05824050e-06     0.00000000e+00    
           2.12373430e-04    -6.24627091e-06     0.00000000e+00    
           2.17941517e-04    -4.39767246e-06     0.00000000e+00    
           2.23235518e-04    -6.63698017e-07     0.00000000e+00    
           2.26649790e-04     4.66840538e-06     0.00000000e+00    
           2.27552431e-04     9.76219872e-06     0.00000000e+00    
           2.26161123e-04     1.46174552e-05     0.00000000e+00    
           2.22038230e-04     1.95768553e-05     0.00000000e+00    
           2.15841210e-04     2.29192501e-05     0.00000000e+00    
           2.08545403e-04     2.52402988e-05     0.00000000e+00    
           2.00126728e-04     2.66942334e-05     0.00000000e+00    
           1.83691314e-04     2.54706229e-05     0.00000000e+00    
           1.77752707e-04     2.35886801e-05     0.00000000e+00    
           1.73590859e-04     2.12194718e-05     0.00000000e+00    
           1.70155952e-04     1.79204562e-05     0.00000000e+00    
           1.67715378e-04     1.38823043e-05     0.00000000e+00    
           1.66668862e-04     9.39261554e-06     0.00000000e+00    
           1.67878170e-04     4.69730639e-06     0.00000000e+00    
           1.71081250e-04     2.51342669e-07     0.00000000e+00    
           1.76205096e-04    -3.35049549e-06     0.00000000e+00    
           1.82668940e-04    -6.08907794e-06     0.00000000e+00    
           1.90131366e-04    -7.54282837e-06     0.00000000e+00    
           1.00745427e-04     3.63879990e-05     0.00000000e+00    
           9.46833825e-05     3.14833742e-05     0.00000000e+00    
           9.04105400e-05     2.50970152e-05     0.00000000e+00    
           8.82802196e-05     1.75620480e-05     0.00000000e+00    
           8.95722405e-05     9.09771370e-06     0.00000000e+00    
           9.58131859e-05    -6.33894217e-07     0.00000000e+00    
           1.05022336e-04    -8.89770672e-06     0.00000000e+00    
           1.15661838e-04    -1.43881107e-05     0.00000000e+00    
           1.26531508e-04    -1.71886040e-05     0.00000000e+00    
           1.46365041e-04    -1.70613603e-05     0.00000000e+00    
           1.54813926e-04    -1.50773840e-05     0.00000000e+00    
           1.62864366e-04    -1.11479712e-05     0.00000000e+00    
           1.69904641e-04    -5.24593861e-06     0.00000000e+00    
           1.75183479e-04     2.59277635e-06     0.00000000e+00    
           1.77310620e-04     1.14028371e-05     0.00000000e+00    
           1.76419184e-04     2.03246927e-05     0.00000000e+00    
           1.72711705e-04     2.87354869e-05     0.00000000e+00    
           1.66464175e-04     3.58738762e-05     0.00000000e+00    
           1.48150531e-04     4.49587569e-05     0.00000000e+00    
           1.37299096e-04     4.59431430e-05     0.00000000e+00    
           1.26296523e-04     4.54573019e-05     0.00000000e+00    
           1.16183190e-04     4.31333865e-05     0.00000000e+00    
           3.21725936e-04    -3.35625737e-05     0.00000000e+00    
           3.29343806e-04    -3.11647054e-05     0.00000000e+00    
           3.36083438e-04    -2.75901566e-05     0.00000000e+00    
           3.42083600e-04    -2.26758948e-05     0.00000000e+00    
           3.46571323e-04    -1.69154810e-05     0.00000000e+00    
           3.48695234e-04    -1.03551192e-05     0.00000000e+00    
           3.48198577e-04    -3.09012762e-06     0.00000000e+00    
           3.44779866e-04     4.63734386e-06     0.00000000e+00    
           3.38957936e-04     1.17647787e-05     0.00000000e+00    
           3.31686519e-04     1.70737621e-05     0.00000000e+00    
           3.22946813e-04     2.05101405e-05     0.00000000e+00    
           3.02527711e-04     2.22960534e-05     0.00000000e+00    
           2.92666955e-04     2.00926734e-05     0.00000000e+00    
           2.83938978e-04     1.58018411e-05     0.00000000e+00    
           2.77154992e-04     9.45791271e-06     0.00000000e+00    
           2.72720412e-04     1.75919740e-06     0.00000000e+00    
           2.71232275e-04    -6.67841641e-06     0.00000000e+00    
           2.72841979e-04    -1.49893167e-05     0.00000000e+00    
           2.77266663e-04    -2.21644186e-05     0.00000000e+00    
           2.84158159e-04    -2.81060893e-05     0.00000000e+00    