<?xml version="1.0"?>
<VTKFile type="UnstructuredGrid" version="0.1">
  <UnstructuredGrid>
    <Piece NumberOfPoints="1034" NumberOfCells="1614">
      <Points>
        <DataArray type="Float32" NumberOfComponents="3">
           5.21582007e-01     5.11657000e-01     0.00000000e+00    
           5.07319987e-01     5.11657000e-01     0.00000000e+00    
           4.65243995e-01     5.17907977e-01     0.00000000e+00    
           4.65243995e-01     5.04921973e-01     0.00000000e+00    
           4.75246996e-01     5.11415005e-01     0.00000000e+00    
           5.33852994e-01     5.04921973e-01     0.00000000e+00    
           5.33852994e-01     5.17907977e-01     0.00000000e+00    
           4.83779997e-01     5.34618974e-01     0.00000000e+00    
           4.68984991e-01     5.34618974e-01     0.00000000e+00    
           4.76381987e-01     5.23841977e-01     0.00000000e+00    
           4.68984991e-01     4.66010004e-01     0.00000000e+00    
           4.83779997e-01     4.66010004e-01     0.00000000e+00    
           4.99920011e-01     5.34618974e-01     0.00000000e+00    
           4.89203990e-01     5.34618974e-01     0.00000000e+00    
           4.94562000e-01     5.22280991e-01     0.00000000e+00    
           4.89203990e-01     4.66010004e-01     0.00000000e+00    
           4.99920011e-01     4.66010004e-01     0.00000000e+00    
           5.32517016e-01     4.74112004e-01     0.00000000e+00    
           5.17961025e-01     4.74112004e-01     0.00000000e+00    
           5.33852994e-01     5.19801974e-01     0.00000000e+00    
           5.33852994e-01     5.29603004e-01     0.00000000e+00    
           5.19536972e-01     5.24702013e-01     0.00000000e+00    
           4.65243995e-01     5.29603004e-01     0.00000000e+00    
           4.65243995e-01     5.19801974e-01     0.00000000e+00    
           4.92487997e-01     5.17117977e-01     0.00000000e+00    
           4.76904988e-01     5.17117977e-01     0.00000000e+00    
           5.17996013e-01     5.27033985e-01     0.00000000e+00    
           5.04473984e-01     5.27033985e-01     0.00000000e+00    
           5.08446991e-01     4.83435005e-01     0.00000000e+00    
           4.94414002e-01     4.83435005e-01     0.00000000e+00    
           4.65243995e-01     4.83101994e-01     0.00000000e+00    
           4.65243995e-01     4.74415004e-01     0.00000000e+00    
           4.78336990e-01     4.78758007e-01     0.00000000e+00    
           5.33852994e-01     4.74415004e-01     0.00000000e+00    
           5.33852994e-01     4.83101994e-01     0.00000000e+00    
           4.80668008e-01     4.95810986e-01     0.00000000e+00    
           4.66084987e-01     4.95810986e-01     0.00000000e+00    
           4.93930012e-01     4.79214013e-01     0.00000000e+00    
           4.78967011e-01     4.79214013e-01     0.00000000e+00    
           5.09284973e-01     4.97658014e-01     0.00000000e+00    
           4.95503992e-01     4.97658014e-01     0.00000000e+00    
           5.33011973e-01     5.01751006e-01     0.00000000e+00    
           5.17829001e-01     5.01751006e-01     0.00000000e+00    
           4.95451003e-01     5.00564992e-01     0.00000000e+00    
           4.80922014e-01     5.00564992e-01     0.00000000e+00    
           5.25367022e-01     4.88312006e-01     0.00000000e+00    
           5.09521008e-01     4.88312006e-01     0.00000000e+00    
           4.65243995e-01     5.34618974e-01     0.00000000e+00    
           4.65243995e-01     4.66010004e-01     0.00000000e+00    
           5.33852994e-01     4.66010004e-01     0.00000000e+00    
           5.33852994e-01     5.34618974e-01     0.00000000e+00    
           5.21338999e-01     5.13502657e-01     0.00000000e+00    
           5.20626605e-01     5.15222490e-01     0.00000000e+00    
           5.19493401e-01     5.16699374e-01     0.00000000e+00    
           5.18016517e-01     5.17832637e-01     0.00000000e+00    
           5.16296625e-01     5.18545032e-01     0.00000000e+00    
           5.14451027e-01     5.18787980e-01     0.00000000e+00    
           5.12605369e-01     5.18545032e-01     0.00000000e+00    
           5.10885477e-01     5.17832637e-01     0.00000000e+00    
           5.09408593e-01     5.16699374e-01     0.00000000e+00    
           5.08275390e-01     5.15222490e-01     0.00000000e+00    
           5.07562995e-01     5.13502657e-01     0.00000000e+00    
           5.07562995e-01     5.09811342e-01     0.00000000e+00    
           5.08275390e-01     5.08091509e-01     0.00000000e+00    
           5.09408593e-01     5.06614625e-01     0.00000000e+00    
           5.10885477e-01     5.05481362e-01     0.00000000e+00    
           5.12605369e-01     5.04768968e-01     0.00000000e+00    
           5.14451027e-01     5.04526019e-01     0.00000000e+00    
           5.16296625e-01     5.04768968e-01     0.00000000e+00    
           5.18016517e-01     5.05481362e-01     0.00000000e+00    
           5.19493401e-01     5.06614625e-01     0.00000000e+00    
           5.20626605e-01     5.08091509e-01     0.00000000e+00    
           5.21338999e-01     5.09811342e-01     0.00000000e+00    
           4.66931671e-01     5.04409373e-01     0.00000000e+00    
           4.68693614e-01     5.04328012e-01     0.00000000e+00    
           4.70421344e-01     5.04682958e-01     0.00000000e+00    
           4.72008497e-01     5.05452335e-01     0.00000000e+00    
           4.73357379e-01     5.06588817e-01     0.00000000e+00    
           4.74384934e-01     5.08022368e-01     0.00000000e+00    
           4.75027919e-01     5.09664834e-01     0.00000000e+00    
           4.75028187e-01     5.13165236e-01     0.00000000e+00    
           4.74385172e-01     5.14807761e-01     0.00000000e+00    
           4.73357558e-01     5.16241372e-01     0.00000000e+00    
           4.72008646e-01     5.17377913e-01     0.00000000e+00    
           4.70421433e-01     5.18147290e-01     0.00000000e+00    
           4.68693614e-01     5.18502235e-01     0.00000000e+00    
           4.66931641e-01     5.18420875e-01     0.00000000e+00    
           5.32303810e-01     5.16964078e-01     0.00000000e+00    
           5.31043947e-01     5.15658796e-01     0.00000000e+00    
           5.30155540e-01     5.14077127e-01     0.00000000e+00    
           5.29696345e-01     5.12322068e-01     0.00000000e+00    
           5.29696345e-01     5.10507941e-01     0.00000000e+00    
           5.30155540e-01     5.08752882e-01     0.00000000e+00    
           5.31043947e-01     5.07171214e-01     0.00000000e+00    
           5.32303810e-01     5.05865932e-01     0.00000000e+00    
           4.68517244e-01     5.32760799e-01     0.00000000e+00    
           4.68509018e-01     5.30844629e-01     0.00000000e+00    
           4.68960851e-01     5.28982460e-01     0.00000000e+00    
           4.69846308e-01     5.27283132e-01     0.00000000e+00    
           4.71113682e-01     5.25845945e-01     0.00000000e+00    
           4.72688884e-01     5.24754822e-01     0.00000000e+00    
           4.74479854e-01     5.24073541e-01     0.00000000e+00    
           4.78284091e-01     5.24073601e-01     0.00000000e+00    
           4.80075032e-01     5.24754822e-01     0.00000000e+00    
           4.81650203e-01     5.25845885e-01     0.00000000e+00    
           4.82917547e-01     5.27283013e-01     0.00000000e+00    
           4.83803004e-01     5.28982282e-01     0.00000000e+00    
           4.84254897e-01     5.30844331e-01     0.00000000e+00    
           4.84246761e-01     5.32760441e-01     0.00000000e+00    
           4.82887864e-01     4.67691004e-01     0.00000000e+00    
           4.81620818e-01     4.69110936e-01     0.00000000e+00    
           4.80051905e-01     4.70188022e-01     0.00000000e+00    
           4.78271484e-01     4.70860153e-01     0.00000000e+00    
           4.76382166e-01     4.71088618e-01     0.00000000e+00    
           4.74492878e-01     4.70860243e-01     0.00000000e+00    
           4.72712427e-01     4.70188200e-01     0.00000000e+00    
           4.71143454e-01     4.69111174e-01     0.00000000e+00    
           4.69876349e-01     4.67691302e-01     0.00000000e+00    
           4.88103986e-01     5.33086061e-01     0.00000000e+00    
           4.87431526e-01     5.31323195e-01     0.00000000e+00    
           4.87231195e-01     5.29447019e-01     0.00000000e+00    
           4.87516224e-01     5.27581930e-01     0.00000000e+00    
           4.88267750e-01     5.25851250e-01     0.00000000e+00    
           4.89436030e-01     5.24369657e-01     0.00000000e+00    
           4.90943670e-01     5.23235261e-01     0.00000000e+00    
           4.92690891e-01     5.22523046e-01     0.00000000e+00    
           4.96432930e-01     5.22523701e-01     0.00000000e+00    
           4.98180002e-01     5.23235798e-01     0.00000000e+00    
           4.99687493e-01     5.24370134e-01     0.00000000e+00    
           5.00855684e-01     5.25851607e-01     0.00000000e+00    
           5.01607120e-01     5.27582109e-01     0.00000000e+00    
           5.01892149e-01     5.29447079e-01     0.00000000e+00    
           5.01691818e-01     5.31323016e-01     0.00000000e+00    
           5.01019418e-01     5.33085763e-01     0.00000000e+00    
           4.98371124e-01     4.67269689e-01     0.00000000e+00    
           4.96539861e-01     4.68064904e-01     0.00000000e+00    
           4.94562000e-01     4.68336672e-01     0.00000000e+00    
           4.92584139e-01     4.68064904e-01     0.00000000e+00    
           4.90752876e-01     4.67269689e-01     0.00000000e+00    
           5.32269001e-01     4.75995690e-01     0.00000000e+00    
           5.31541944e-01     4.77750987e-01     0.00000000e+00    
           5.30385315e-01     4.79258329e-01     0.00000000e+00    
           5.28877974e-01     4.80414927e-01     0.00000000e+00    
[...]
      <PointData>
        <DataArray type="Float32" Name="Displacement" NumberOfComponents="3">
           8.38404405e-04     4.88929290e-05     0.00000000e+00    
           8.38112144e-04     1.59904594e-04     0.00000000e+00    
           9.26637673e-04     1.28767942e-05     0.00000000e+00    
           7.82610732e-04     1.82098211e-05     0.00000000e+00    
           8.56203027e-04    -6.25634493e-05     0.00000000e+00    
           7.82610732e-04     1.82098211e-05     0.00000000e+00    
           9.26637673e-04     1.28767942e-05     0.00000000e+00    
           1.21269748e-03    -6.86987842e-05     0.00000000e+00    
           1.21613417e-03     9.15485507e-05     0.00000000e+00    
           1.07449223e-03     1.47641958e-05     0.00000000e+00    
          -3.38658756e-05     9.15485507e-05     0.00000000e+00    
          -3.73024923e-05    -6.86987842e-05     0.00000000e+00    
           1.15558109e-03    -6.35100077e-05     0.00000000e+00    
           1.16038055e-03    -2.31240101e-05     0.00000000e+00    
           1.08327717e-03    -4.77248141e-05     0.00000000e+00    
          -8.96194615e-05    -2.31240101e-05     0.00000000e+00    
          -9.44189524e-05    -6.35100077e-05     0.00000000e+00    
           2.15712163e-04    -3.96608812e-05     0.00000000e+00    
           2.12841042e-04     1.46715960e-04     0.00000000e+00    
           9.97004565e-04    -8.67594281e-06     0.00000000e+00    
           1.12329319e-03    -1.33501344e-05     0.00000000e+00    
           1.06216478e-03     1.34947491e-04     0.00000000e+00    
           1.12329319e-03    -1.33501344e-05     0.00000000e+00    
           9.97004565e-04    -8.67594281e-06     0.00000000e+00    
           9.51154507e-04    -1.03139319e-04     0.00000000e+00    
           9.45443928e-04     5.24832612e-05     0.00000000e+00    
           1.09430985e-03     7.44225690e-05     0.00000000e+00    
           1.09742663e-03     1.34633738e-04     0.00000000e+00    
           3.87911539e-04    -1.06138177e-05     0.00000000e+00    
           3.81374150e-04     6.18196209e-05     0.00000000e+00    
           3.29763425e-04     1.03769104e-04     0.00000000e+00    
           2.13685809e-04     1.04490311e-04     0.00000000e+00    
           2.77555373e-04    -4.20235119e-05     0.00000000e+00    
           2.13685809e-04     1.04490311e-04     0.00000000e+00    
           3.29763425e-04     1.03769104e-04     0.00000000e+00    
           6.27807400e-04    -6.73908653e-05     0.00000000e+00    
           6.28393900e-04     5.25442192e-05     0.00000000e+00    
           3.05952213e-04    -9.06593559e-05     0.00000000e+00    
           2.96706858e-04     2.40682311e-05     0.00000000e+00    
           6.25532353e-04     3.21908556e-05     0.00000000e+00    
           6.33766816e-04     3.37438796e-05     0.00000000e+00    
           7.16698240e-04    -2.45222491e-05     0.00000000e+00    
           7.19474396e-04     1.08657863e-04     0.00000000e+00    
           6.50699658e-04    -4.85180535e-05     0.00000000e+00    
           6.56655291e-04    -3.32300488e-06     0.00000000e+00    
           4.72792046e-04     2.39887795e-05     0.00000000e+00    
           4.71467472e-04     1.98798269e-04     0.00000000e+00    
           1.24999997e-03     0.00000000e+00     0.00000000e+00    
           0.00000000e+00     0.00000000e+00     0.00000000e+00    
           0.00000000e+00     0.00000000e+00     0.00000000e+00    
           1.24999997e-03     0.00000000e+00     0.00000000e+00    
           8.58812069e-04     5.07205659e-05     0.00000000e+00    
           8.77224316e-04     5.69512995e-05     0.00000000e+00    
           8.92581476e-04     6.58888675e-05     0.00000000e+00    
           9.03955719e-04     7.68283717e-05     0.00000000e+00    
           9.10854258e-04     8.96589772e-05     0.00000000e+00    
           9.13548749e-04     1.03182960e-04     0.00000000e+00    
           9.11208277e-04     1.17887408e-04     0.00000000e+00    
           9.03336098e-04     1.32501300e-04     0.00000000e+00    
           8.90364288e-04     1.45058031e-04     0.00000000e+00    
           8.74624646e-04     1.53604909e-04     0.00000000e+00    
           8.56937550e-04     1.58640105e-04     0.00000000e+00    
           8.19271081e-04     1.57099945e-04     0.00000000e+00    
           8.01715301e-04     1.51022585e-04     0.00000000e+00    
           7.87001103e-04     1.42072371e-04     0.00000000e+00    
           7.76019646e-04     1.31366163e-04     0.00000000e+00    
           7.69680948e-04     1.19262892e-04     0.00000000e+00    
           7.68133497e-04     1.06646723e-04     0.00000000e+00    
           7.70007784e-04     9.46113287e-05     0.00000000e+00    
           7.74320215e-04     8.44208553e-05     0.00000000e+00    
           7.81600014e-04     7.51269254e-05     0.00000000e+00    
           7.96674169e-04     6.21147410e-05     0.00000000e+00    
           8.17058259e-04     5.24775242e-05     0.00000000e+00    
           7.78420886e-04     7.71688065e-06     0.00000000e+00    
           7.77569541e-04    -4.66808524e-06     0.00000000e+00    
           7.81048206e-04    -1.87553869e-05     0.00000000e+00    
           7.89657701e-04    -3.30468974e-05     0.00000000e+00    
           8.02464550e-04    -4.58584800e-05     0.00000000e+00    
           8.18465836e-04    -5.53190876e-05     0.00000000e+00    
           8.36693449e-04    -6.07775655e-05     0.00000000e+00    
           8.75154044e-04    -6.05971836e-05     0.00000000e+00    
           8.91843229e-04    -5.51191042e-05     0.00000000e+00    
           9.05979949e-04    -4.68874241e-05     0.00000000e+00    
           9.16728284e-04    -3.61528946e-05     0.00000000e+00    
           9.24556516e-04    -2.39560959e-05     0.00000000e+00    
           9.29079484e-04    -1.14581517e-05     0.00000000e+00    
           9.29599220e-04     9.44355236e-07     0.00000000e+00    
           9.17502330e-04     2.69397151e-05     0.00000000e+00    
           9.01442021e-04     4.03940103e-05     0.00000000e+00    
           8.81581102e-04     5.05293465e-05     0.00000000e+00    
           8.60534725e-04     5.50908226e-05     0.00000000e+00    
           8.39263201e-04     5.42322305e-05     0.00000000e+00    
           8.19147273e-04     4.87159377e-05     0.00000000e+00    
           8.02270137e-04     3.97457661e-05     0.00000000e+00    
           7.90415914e-04     2.86279956e-05     0.00000000e+00    
           1.18972058e-03     9.59121535e-05     0.00000000e+00    
           1.16303982e-03     9.51296897e-05     0.00000000e+00    
           1.13805220e-03     8.95031772e-05     0.00000000e+00    
           1.11661945e-03     7.95907763e-05     0.00000000e+00    
           1.09953224e-03     6.59074576e-05     0.00000000e+00    
           1.08651130e-03     4.96045541e-05     0.00000000e+00    
           1.07791158e-03     3.21616499e-05     0.00000000e+00    
           1.07553450e-03    -2.10958660e-06     0.00000000e+00    
           1.08253560e-03    -1.97280388e-05     0.00000000e+00    
           1.09678530e-03    -3.85622734e-05     0.00000000e+00    
           1.11678545e-03    -5.56193736e-05     0.00000000e+00    
           1.13929715e-03    -6.75772462e-05     0.00000000e+00    
           1.16281083e-03    -7.32778717e-05     0.00000000e+00    
           1.18757377e-03    -7.35585490e-05     0.00000000e+00    
          -1.36076533e-05    -5.88167677e-05     0.00000000e+00    
           6.68637995e-06    -4.49161016e-05     0.00000000e+00    
           2.21763094e-05    -2.81657340e-05     0.00000000e+00    
           3.24471439e-05    -1.08705435e-05     0.00000000e+00    
           3.63892759e-05     7.73255215e-06     0.00000000e+00    
           3.51254057e-05     2.61680525e-05     0.00000000e+00    
           2.60175111e-05     4.69618790e-05     0.00000000e+00    
           1.05603531e-05     6.64352337e-05     0.00000000e+00    
          -1.01649057e-05     8.16872562e-05     0.00000000e+00    
           1.15111005e-03    -1.82573549e-05     0.00000000e+00    
           1.14042091e-03    -1.58244056e-05     0.00000000e+00    
           1.12848997e-03    -1.56367587e-05     0.00000000e+00    
           1.11574191e-03    -1.77885049e-05     0.00000000e+00    
           1.10264146e-03    -2.29617908e-05     0.00000000e+00    
           1.09250110e-03    -2.99599506e-05     0.00000000e+00    
           1.08635263e-03    -3.69597219e-05     0.00000000e+00    
           1.08326355e-03    -4.26214319e-05     0.00000000e+00    
           1.08553388e-03    -5.30069847e-05     0.00000000e+00    
           1.09020772e-03    -5.79264524e-05     0.00000000e+00    
           1.09690498e-03    -6.19112252e-05     0.00000000e+00    
           1.10480888e-03    -6.50975853e-05     0.00000000e+00    
           1.11344934e-03    -6.69572983e-05     0.00000000e+00    
           1.12343172e-03    -6.81204328e-05     0.00000000e+00    
           1.13413774e-03    -6.81510355e-05     0.00000000e+00    
           1.14527566e-03    -6.67541099e-05     0.00000000e+00    
          -8.55705948e-05    -5.81496206e-05     0.00000000e+00    
          -7.94013758e-05    -5.18161505e-05     0.00000000e+00    
          -7.62537093e-05    -4.53187458e-05     0.00000000e+00    
          -7.71787454e-05    -3.79267876e-05     0.00000000e+00    
          -8.15749590e-05    -3.02147346e-05     0.00000000e+00    
           2.44477415e-04    -3.62683422e-05     0.00000000e+00    
           2.69794662e-04    -2.62891899e-05     0.00000000e+00    
           2.90426397e-04    -1.21130379e-05     0.00000000e+00    
           3.06470640e-04     5.20942422e-06     0.00000000e+00    
           3.17813479e-04     2.52696027e-05     0.00000000e+00    
           3.23259592e-04     4.70204795e-05     0.00000000e+00    
           3.22515349e-04     6.93019683e-05     0.00000000e+00    
           3.13302909e-04     9.18549922e-05     0.00000000e+00    
           2.95052887e-04     1.13994865e-04     0.00000000e+00    
           2.70319346e-04     1.32087705e-04     0.00000000e+00    
           2.42221096e-04     1.43214056e-04     0.00000000e+00    
           1.83555094e-04     1.43818383e-04     0.00000000e+00    
           1.56322945e-04     1.34610193e-04     0.00000000e+00    
           1.33063862e-04     1.19998083e-04     0.00000000e+00    
           1.15374911e-04     1.00853023e-04     0.00000000e+00    
           1.04536834e-04     7.85655793e-05     0.00000000e+00    
           1.00785532e-04     5.46715019e-05     0.00000000e+00    
           1.04225604e-04     2.99908115e-05     0.00000000e+00    
           1.16145427e-04     6.11331916e-06     0.00000000e+00    
           1.34481714e-04    -1.36633980e-05     0.00000000e+00    
           1.58353418e-04    -2.81660086e-05     0.00000000e+00    
           1.86192861e-04    -3.71320966e-05     0.00000000e+00    
           1.13988796e-03    -1.62078791e-07     0.00000000e+00    
           1.15230761e-03     1.63986369e-05     0.00000000e+00    
           1.15996459e-03     3.58520447e-05     0.00000000e+00    
           1.16085331e-03     5.75964987e-05     0.00000000e+00    
           1.15437387e-03     8.00315247e-05     0.00000000e+00    
           1.14199461e-03     1.00101919e-04     0.00000000e+00    
           1.12500298e-03     1.16014511e-04     0.00000000e+00    
           1.10548374e-03     1.27123029e-04     0.00000000e+00    
           1.08461047e-03     1.33239519e-04     0.00000000e+00    
           1.03813771e-03     1.32263594e-04     0.00000000e+00    
           1.01432728e-03     1.24669765e-04     0.00000000e+00    
           9.93316644e-04     1.12613576e-04     0.00000000e+00    
           9.77052958e-04     9.72387570e-05     0.00000000e+00    
           9.66828025e-04     7.95738815e-05     0.00000000e+00    
           9.61725484e-04     6.11610230e-05     0.00000000e+00    
           9.61484271e-04     4.28242056e-05     0.00000000e+00    
           9.65986343e-04     2.58181080e-05     0.00000000e+00    
           9.77403019e-04     8.29121655e-06     0.00000000e+00    
           1.01797574e-03    -2.05438955e-05     0.00000000e+00    
           1.04054727e-03    -2.73734113e-05     0.00000000e+00    
           1.06348575e-03    -2.94722922e-05     0.00000000e+00    
           1.08552480e-03    -2.72404177e-05     0.00000000e+00    
           1.10565173e-03    -2.15569544e-05     0.00000000e+00    
           9.75070405e-04    -1.00117541e-04     0.00000000e+00    
           9.97707830e-04    -9.18474761e-05     0.00000000e+00    
           1.01794384e-03    -8.01015995e-05     0.00000000e+00    
           1.03212812e-03    -6.56935226e-05     0.00000000e+00    
           1.04157266e-03    -5.10649588e-05     0.00000000e+00    
           1.04568806e-03    -3.67704633e-05     0.00000000e+00    
           1.04563474e-03    -2.20148449e-05     0.00000000e+00    
           1.04194705e-03    -6.25244911e-06     0.00000000e+00    
           1.03142031e-03     1.08287832e-05     0.00000000e+00    
           1.01408688e-03     2.82177170e-05     0.00000000e+00    
           9.92695102e-04     4.16782532e-05     0.00000000e+00    
           9.69519548e-04     4.95595559e-05     0.00000000e+00    
           9.22376115e-04     5.03578922e-05     0.00000000e+00    
           9.01826017e-04     4.38640309e-05     0.00000000e+00    
           8.84196255e-04     3.45397748e-05     0.00000000e+00    
           8.69680895e-04     2.16111075e-05     0.00000000e+00    
           8.58754676e-04     5.89274487e-06     0.00000000e+00    
           8.52001249e-04    -1.15218609e-05     0.00000000e+00    
           8.51266086e-04    -3.03526194e-05     0.00000000e+00    
           8.57201929e-04    -4.93721964e-05     0.00000000e+00    
           8.68736359e-04    -6.74591938e-05     0.00000000e+00    
           8.85144749e-04    -8.29028140e-05     0.00000000e+00    
           9.05118359e-04    -9.42115876e-05     0.00000000e+00    
           9.27456073e-04    -1.01043370e-04     0.00000000e+00    
           1.10768853e-03     7.56025547e-05     0.00000000e+00    
           1.12043868e-03     7.93866275e-05     0.00000000e+00    
           1.13100011e-03     8.55468315e-05     0.00000000e+00    
           1.13806245e-03     9.34768177e-05     0.00000000e+00    
           1.14116352e-03     1.02125799e-04     0.00000000e+00    
           1.14044908e-03     1.10899593e-04     0.00000000e+00    
           1.13596534e-03     1.19194119e-04     0.00000000e+00    
           1.12847693e-03     1.25955426e-04     0.00000000e+00    
           1.11896719e-03     1.30835717e-04     0.00000000e+00    
           1.10883405e-03     1.33156864e-04     0.00000000e+00    
           1.08539558e-03     1.34607166e-04     0.00000000e+00    
           1.07338862e-03     1.32797737e-04     0.00000000e+00    
           1.06254441e-03     1.28724743e-04     0.00000000e+00    
           1.05362816e-03     1.22998608e-04     0.00000000e+00    
           1.04829110e-03     1.14732698e-04     0.00000000e+00    
           1.04751810e-03     1.04626939e-04     0.00000000e+00    
           1.05162337e-03     9.37893637e-05     0.00000000e+00    
           1.06001890e-03     8.43510206e-05     0.00000000e+00    
           1.07000978e-03     7.83020878e-05     0.00000000e+00    
           1.08121184e-03     7.54409994e-05     0.00000000e+00    
           4.02294158e-04    -9.71695317e-06     0.00000000e+00    
           4.14888462e-04    -7.11063558e-06     0.00000000e+00    
           4.25326638e-04    -1.60370348e-06     0.00000000e+00    
           4.34229150e-04     6.71352518e-06     0.00000000e+00    
           4.38965915e-04     1.67186954e-05     0.00000000e+00    
           4.40333126e-04     2.64378541e-05     0.00000000e+00    
           4.38664894e-04     3.55625816e-05     0.00000000e+00    
           4.32706933e-04     4.49719555e-05     0.00000000e+00    
           4.22619458e-04     5.18320703e-05     0.00000000e+00    
           4.10562498e-04     5.66018898e-05     0.00000000e+00    
           3.96263116e-04     6.05015739e-05     0.00000000e+00    
           3.67117231e-04     6.04681009e-05     0.00000000e+00    
           3.55023367e-04     5.64252114e-05     0.00000000e+00    
           3.45680222e-04     5.05042335e-05     0.00000000e+00    
           3.38542101e-04     4.32011329e-05     0.00000000e+00    
           3.33796750e-04     3.47750210e-05     0.00000000e+00    
           3.31853342e-04     2.56911699e-05     0.00000000e+00    
           3.33912147e-04     1.63341265e-05     0.00000000e+00    
           3.39641294e-04     7.47902504e-06     0.00000000e+00    
           3.48845264e-04     2.55643812e-07     0.00000000e+00    
           3.60334059e-04    -5.47742275e-06     0.00000000e+00    
           3.73638060e-04    -9.06825062e-06     0.00000000e+00    
           1.97218964e-04     9.22983600e-05     0.00000000e+00    
           1.83992539e-04     7.76845482e-05     0.00000000e+00    
           1.75404610e-04     6.01169595e-05     0.00000000e+00    
           1.72492088e-04     4.05904902e-05     0.00000000e+00    
           1.76350441e-04     2.05163269e-05     0.00000000e+00    
           1.89543178e-04    -9.49318803e-07     0.00000000e+00    
           2.08487269e-04    -1.92541447e-05     0.00000000e+00    
           2.30667443e-04    -3.19524443e-05     0.00000000e+00    
           2.54083774e-04    -3.95720126e-05     0.00000000e+00    
           2.99910811e-04    -3.96239775e-05     0.00000000e+00    
           3.20198073e-04    -3.33625430e-05     0.00000000e+00    
           3.38742451e-04    -2.28581284e-05     0.00000000e+00    
           3.54441931e-04    -8.04727915e-06     0.00000000e+00    
           3.65778484e-04     1.06237312e-05     0.00000000e+00    
           3.70558555e-04     3.12788325e-05     0.00000000e+00    
           3.68959678e-04     5.23292256e-05     0.00000000e+00    
           3.61186219e-04     7.24643251e-05     0.00000000e+00    
           3.47720721e-04     8.99600855e-05     0.00000000e+00    
           3.07630311e-04     1.13634240e-04     0.00000000e+00    
           2.83419504e-04     1.18406053e-04     0.00000000e+00    
           2.57958978e-04     1.19163044e-04     0.00000000e+00    
           2.34116524e-04     1.13958442e-04     0.00000000e+00    
           6.45866792e-04    -6.48722998e-05     0.00000000e+00    
           6.61661499e-04    -5.94375488e-05     0.00000000e+00    
           6.75343385e-04    -5.12634761e-05     0.00000000e+00    
           6.87150576e-04    -4.05270039e-05     0.00000000e+00    
           6.95830153e-04    -2.79943888e-05     0.00000000e+00    
           6.99798344e-04    -1.38945279e-05     0.00000000e+00    
           6.98558055e-04     1.39351152e-06     0.00000000e+00    
           6.91591704e-04     1.72099990e-05     0.00000000e+00    
           6.79944700e-04     3.15554535e-05     0.00000000e+00    
           6.65463216e-04     4.21855657e-05     0.00000000e+00    
           6.48145098e-04     4.89175327e-05     0.00000000e+00    
           6.07820577e-04     5.18981869e-05     0.00000000e+00    
           5.88437775e-04     4.71533349e-05     0.00000000e+00    
           5.71436831e-04     3.82452927e-05     0.00000000e+00    
           5.58420608e-04     2.52312111e-05     0.00000000e+00    
           5.50115714e-04     9.63535422e-06     0.00000000e+00    
           5.47241420e-04    -7.34969308e-06     0.00000000e+00    
           5.50031255e-04    -2.42101305e-05     0.00000000e+00    
           5.58293948e-04    -3.91794711e-05     0.00000000e+00    
           5.71547425e-04    -5.16428481e-05     0.00000000e+00    