<?xml version="1.0"?>
<VTKFile type="UnstructuredGrid" version="0.1">
  <UnstructuredGrid>
    <Piece NumberOfPoints="1034" NumberOfCells="1614">
      <Points>
        <DataArray type="Float32" NumberOfComponents="3">
           5.21582007e-01     5.11657000e-01     0.00000000e+00    
           5.07319987e-01     5.11657000e-01     0.00000000e+00    
           4.65243995e-01     5.17907977e-01     0.00000000e+00    
           4.65243995e-01     5.04921973e-01     0.00000000e+00    
           4.75246996e-01     5.11415005e-01     0.00000000e+00    
           5.33852994e-01     5.04921973e-01     0.00000000e+00    
           5.33852994e-01     5.17907977e-01     0.00000000e+00    
           4.83779997e-01     5.34618974e-01     0.00000000e+00    
           4.68984991e-01     5.34618974e-01     0.00000000e+00    
           4.76381987e-01     5.23841977e-01     0.00000000e+00    
           4.68984991e-01     4.66010004e-01     0.00000000e+00    
           4.83779997e-01     4.66010004e-01     0.00000000e+00    
           4.99920011e-01     5.34618974e-01     0.00000000e+00    
           4.89203990e-01     5.34618974e-01     0.00000000e+00    
           4.94562000e-01     5.22280991e-01     0.00000000e+00    
           4.89203990e-01     4.66010004e-01     0.00000000e+00    
           4.99920011e-01     4.66010004e-01     0.00000000e+00    
           5.32517016e-01     4.74112004e-01     0.00000000e+00    
           5.17961025e-01     4.74112004e-01     0.00000000e+00    
           5.33852994e-01     5.19801974e-01     0.00000000e+00    
           5.33852994e-01     5.29603004e-01     0.00000000e+00    
           5.19536972e-01     5.24702013e-01     0.00000000e+00    
           4.65243995e-01     5.29603004e-01     0.00000000e+00    
           4.65243995e-01     5.19801974e-01     0.00000000e+00    
           4.92487997e-01     5.17117977e-01     0.00000000e+00    
           4.76904988e-01     5.17117977e-01     0.00000000e+00    
           5.17996013e-01     5.27033985e-01     0.00000000e+00    
           5.04473984e-01     5.27033985e-01     0.00000000e+00    
           5.08446991e-01     4.83435005e-01     0.00000000e+00    
           4.94414002e-01     4.83435005e-01     0.00000000e+00    
           4.65243995e-01     4.83101994e-01     0.00000000e+00    
           4.65243995e-01     4.74415004e-01     0.00000000e+00    
           4.78336990e-01     4.78758007e-01     0.00000000e+00    
           5.33852994e-01     4.74415004e-01     0.00000000e+00    
           5.33852994e-01     4.83101994e-01     0.00000000e+00    
           4.80668008e-01     4.95810986e-01     0.00000000e+00    
           4.66084987e-01     4.95810986e-01     0.00000000e+00    
           4.93930012e-01     4.79214013e-01     0.00000000e+00    
           4.78967011e-01     4.79214013e-01     0.00000000e+00    
           5.09284973e-01     4.97658014e-01     0.00000000e+00    
           4.95503992e-01     4.97658014e-01     0.00000000e+00    
           5.33011973e-01     5.01751006e-01     0.00000000e+00    
           5.17829001e-01     5.01751006e-01     0.00000000e+00    
           4.95451003e-01     5.00564992e-01     0.00000000e+00    
           4.80922014e-01     5.00564992e-01     0.00000000e+00    
           5.25367022e-01     4.88312006e-01     0.00000000e+00    
           5.09521008e-01     4.88312006e-01     0.00000000e+00    
           4.65243995e-01     5.34618974e-01     0.00000000e+00    
           4.65243995e-01     4.66010004e-01     0.00000000e+00    
           5.33852994e-01     4.66010004e-01     0.00000000e+00    
           5.33852994e-01     5.34618974e-01     0.00000000e+00    
           5.21338999e-01     5.13502657e-01     0.00000000e+00    
           5.20626605e-01     5.15222490e-01     0.00000000e+00    
           5.19493401e-01     5.16699374e-01     0.00000000e+00    
           5.18016517e-01     5.17832637e-01     0.00000000e+00    
           5.16296625e-01     5.18545032e-01     0.00000000e+00    
           5.14451027e-01     5.18787980e-01     0.00000000e+00    
           5.12605369e-01     5.18545032e-01     0.00000000e+00    
           5.10885477e-01     5.17832637e-01     0.00000000e+00    
           5.09408593e-01     5.16699374e-01     0.00000000e+00    
           5.08275390e-01     5.15222490e-01     0.00000000e+00    
           5.07562995e-01     5.13502657e-01     0.00000000e+00    
           5.07562995e-01     5.09811342e-01     0.00000000e+00    
           5.08275390e-01     5.08091509e-01     0.00000000e+00    
           5.09408593e-01     5.06614625e-01     0.00000000e+00    
           5.10885477e-01     5.05481362e-01     0.00000000e+00    
           5.12605369e-01     5.04768968e-01     0.00000000e+00    
           5.14451027e-01     5.04526019e-01     0.00000000e+00    
           5.16296625e-01     5.04768968e-01     0.00000000e+00    
           5.18016517e-01     5.05481362e-01     0.00000000e+00    
           5.19493401e-01     5.06614625e-01     0.00000000e+00    
           5.20626605e-01     5.08091509e-01     0.00000000e+00    
           5.21338999e-01     5.09811342e-01     0.00000000e+00    
           4.66931671e-01     5.04409373e-01     0.00000000e+00    
           4.68693614e-01     5.04328012e-01     0.00000000e+00    
           4.70421344e-01     5.04682958e-01     0.00000000e+00    
           4.72008497e-01     5.05452335e-01     0.00000000e+00    
           4.73357379e-01     5.06588817e-01     0.00000000e+00    
           4.74384934e-01     5.08022368e-01     0.00000000e+00    
           4.75027919e-01     5.09664834e-01     0.00000000e+00    
           4.75028187e-01     5.13165236e-01     0.00000000e+00    
           4.74385172e-01     5.14807761e-01     0.00000000e+00    
           4.73357558e-01     5.16241372e-01     0.00000000e+00    
           4.72008646e-01     5.17377913e-01     0.00000000e+00    
           4.70421433e-01     5.18147290e-01     0.00000000e+00    
           4.68693614e-01     5.18502235e-01     0.00000000e+00    
           4.66931641e-01     5.18420875e-01     0.00000000e+00    
           5.32303810e-01     5.16964078e-01     0.00000000e+00    
           5.31043947e-01     5.15658796e-01     0.00000000e+00    
           5.30155540e-01     5.14077127e-01     0.00000000e+00    
           5.29696345e-01     5.12322068e-01     0.00000000e+00    
           5.29696345e-01     5.10507941e-01     0.00000000e+00    
           5.30155540e-01     5.08752882e-01     0.00000000e+00    
           5.31043947e-01     5.07171214e-01     0.00000000e+00    
           5.32303810e-01     5.05865932e-01     0.00000000e+00    
           4.68517244e-01     5.32760799e-01     0.00000000e+00    
           4.68509018e-01     5.30844629e-01     0.00000000e+00    
           4.68960851e-01     5.28982460e-01     0.00000000e+00    
           4.69846308e-01     5.27283132e-01     0.00000000e+00    
           4.71113682e-01     5.25845945e-01     0.00000000e+00    
           4.72688884e-01     5.24754822e-01     0.00000000e+00    
           4.74479854e-01     5.24073541e-01     0.00000000e+00    
           4.78284091e-01     5.24073601e-01     0.00000000e+00    
           4.80075032e-01     5.24754822e-01     0.00000000e+00    
           4.81650203e-01     5.25845885e-01     0.00000000e+00    
           4.82917547e-01     5.27283013e-01     0.00000000e+00    
           4.83803004e-01     5.28982282e-01     0.00000000e+00    
           4.84254897e-01     5.30844331e-01     0.00000000e+00    
           4.84246761e-01     5.32760441e-01     0.00000000e+00    
           4.82887864e-01     4.67691004e-01     0.00000000e+00    
           4.81620818e-01     4.69110936e-01     0.00000000e+00    
           4.80051905e-01     4.70188022e-01     0.00000000e+00    
           4.78271484e-01     4.70860153e-01     0.00000000e+00    
           4.76382166e-01     4.71088618e-01     0.00000000e+00    
           4.74492878e-01     4.70860243e-01     0.00000000e+00    
           4.72712427e-01     4.70188200e-01     0.00000000e+00    
           4.71143454e-01     4.69111174e-01     0.00000000e+00    
           4.69876349e-01     4.67691302e-01     0.00000000e+00    
           4.88103986e-01     5.33086061e-01     0.00000000e+00    
           4.87431526e-01     5.31323195e-01     0.00000000e+00    
           4.87231195e-01     5.29447019e-01     0.00000000e+00    
           4.87516224e-01     5.27581930e-01     0.00000000e+00    
           4.88267750e-01     5.25851250e-01     0.00000000e+00    
           4.89436030e-01     5.24369657e-01     0.00000000e+00    
           4.90943670e-01     5.23235261e-01     0.00000000e+00    
           4.92690891e-01     5.22523046e-01     0.00000000e+00    
           4.96432930e-01     5.22523701e-01     0.00000000e+00    
           4.98180002e-01     5.23235798e-01     0.00000000e+00    
           4.99687493e-01     5.24370134e-01     0.00000000e+00    
           5.00855684e-01     5.25851607e-01     0.00000000e+00    
           5.01607120e-01     5.27582109e-01     0.00000000e+00    
           5.01892149e-01     5.29447079e-01     0.00000000e+00    
           5.01691818e-01     5.31323016e-01     0.00000000e+00    
           5.01019418e-01     5.33085763e-01     0.00000000e+00    
           4.98371124e-01     4.67269689e-01     0.00000000e+00    
           4.96539861e-01     4.68064904e-01     0.00000000e+00    
           4.94562000e-01     4.68336672e-01     0.00000000e+00    
           4.92584139e-01     4.68064904e-01     0.00000000e+00    
           4.90752876e-01     4.67269689e-01     0.00000000e+00    
           5.32269001e-01     4.75995690e-01     0.00000000e+00    
           5.31541944e-01     4.77750987e-01     0.00000000e+00    
           5.30385315e-01     4.79258329e-01     0.00000000e+00    
           5.28877974e-01     4.80414927e-01     0.00000000e+00    
[...]
      <PointData>
        <DataArray type="Float32" Name="Displacement" NumberOfComponents="3">
           2.57428573e-03     1.13493775e-03     0.00000000e+00    
           2.55373656e-03     1.28591352e-03     0.00000000e+00    
           1.28014991e-03     1.23861409e-03     0.00000000e+00    
           1.09813898e-03     1.22043677e-03     0.00000000e+00    
           1.20365690e-03     1.09228271e-03     0.00000000e+00    
           2.89813895e-03     1.22043677e-03     0.00000000e+00    
           3.08014988e-03     1.23861409e-03     0.00000000e+00    
           2.02722801e-03     1.60455843e-03     0.00000000e+00    
           2.00632890e-03     1.83421455e-03     0.00000000e+00    
           1.84719171e-03     1.70363567e-03     0.00000000e+00    
           2.06328841e-04     3.42145468e-05     0.00000000e+00    
           2.27228069e-04    -1.95441608e-04     0.00000000e+00    
           2.45896168e-03     1.60336040e-03     0.00000000e+00    
           2.44274363e-03     1.73273089e-03     0.00000000e+00    
           2.29845243e-03     1.65114785e-03     0.00000000e+00    
           6.42743602e-04    -6.72691240e-05     0.00000000e+00    
           6.58961653e-04    -1.96639565e-04     0.00000000e+00    
           1.77805265e-03     1.45266706e-04     0.00000000e+00    
           1.75789231e-03     2.98006111e-04     0.00000000e+00    
           3.05890036e-03     1.37607905e-03     0.00000000e+00    
           3.19212466e-03     1.39056682e-03     0.00000000e+00    
           3.10556567e-03     1.57622411e-03     0.00000000e+00    
           1.39212469e-03     1.39056682e-03     0.00000000e+00    
           1.25890039e-03     1.37607905e-03     0.00000000e+00    
           1.78821792e-03     1.24481448e-03     0.00000000e+00    
           1.76680298e-03     1.48429081e-03     0.00000000e+00    
           2.80765700e-03     1.46555982e-03     0.00000000e+00    
           2.78831157e-03     1.62889366e-03     0.00000000e+00    
           1.39468559e-03     3.99385317e-04     0.00000000e+00    
           1.37591094e-03     6.05801877e-04     0.00000000e+00    
           4.78990260e-04     3.65589687e-04     0.00000000e+00    
           3.58344521e-04     3.53680603e-04     0.00000000e+00    
           4.36952367e-04     1.80043076e-04     0.00000000e+00    
           2.15834449e-03     3.53680603e-04     0.00000000e+00    
           2.27899035e-03     3.65589687e-04     0.00000000e+00    
           9.33818694e-04     6.84079365e-04     0.00000000e+00    
           9.13888158e-04     8.98347236e-04     0.00000000e+00    
           8.10844358e-04     2.07747566e-04     0.00000000e+00    
           7.91000144e-04     3.87531094e-04     0.00000000e+00    
           1.72390917e-03     6.23333850e-04     0.00000000e+00    
           1.70401274e-03     8.40643421e-04     0.00000000e+00    
           2.52840691e-03     8.99334205e-04     0.00000000e+00    
           2.50750361e-03     1.11173640e-03     0.00000000e+00    
           1.49194815e-03     8.25725961e-04     0.00000000e+00    
           1.47194765e-03     1.02572201e-03     0.00000000e+00    
           1.84888381e-03     4.27284162e-04     0.00000000e+00    
           1.82675652e-03     5.82775101e-04     0.00000000e+00    
           1.79999997e-03     1.79999997e-03     0.00000000e+00    
           0.00000000e+00     0.00000000e+00     0.00000000e+00    
           1.79999997e-03     0.00000000e+00     0.00000000e+00    
           3.59999994e-03     1.79999997e-03     0.00000000e+00    
           2.59344187e-03     1.14069041e-03     0.00000000e+00    
           2.61095213e-03     1.15048024e-03     0.00000000e+00    
           2.62537831e-03     1.16456277e-03     0.00000000e+00    
           2.63571949e-03     1.18200772e-03     0.00000000e+00    
           2.64118100e-03     1.20124605e-03     0.00000000e+00    
           2.64147623e-03     1.22130278e-03     0.00000000e+00    
           2.63669994e-03     1.24087627e-03     0.00000000e+00    
           2.62638624e-03     1.25867035e-03     0.00000000e+00    
           2.61084875e-03     1.27277791e-03     0.00000000e+00    
           2.59282789e-03     1.28166925e-03     0.00000000e+00    
           2.57345615e-03     1.28612190e-03     0.00000000e+00    
           2.53453502e-03     1.28082780e-03     0.00000000e+00    
           2.51701055e-03     1.27149513e-03     0.00000000e+00    
           2.50230986e-03     1.25785882e-03     0.00000000e+00    
           2.49158754e-03     1.24100572e-03     0.00000000e+00    
           2.48580053e-03     1.22179731e-03     0.00000000e+00    
           2.48570577e-03     1.20146025e-03     0.00000000e+00    
           2.49165203e-03     1.18164707e-03     0.00000000e+00    
           2.50238809e-03     1.16449280e-03     0.00000000e+00    
           2.51649995e-03     1.15013553e-03     0.00000000e+00    
           2.53381231e-03     1.13958435e-03     0.00000000e+00    
           2.55364645e-03     1.13427674e-03     0.00000000e+00    
           1.09325734e-03     1.19586056e-03     0.00000000e+00    
           1.09450892e-03     1.17117213e-03     0.00000000e+00    
           1.10168767e-03     1.14750583e-03     0.00000000e+00    
           1.11518591e-03     1.12629228e-03     0.00000000e+00    
           1.13412039e-03     1.10961683e-03     0.00000000e+00    
           1.15592207e-03     1.09826273e-03     0.00000000e+00    
           1.17940770e-03     1.09262438e-03     0.00000000e+00    
           1.22729561e-03     1.09742361e-03     0.00000000e+00    
           1.24947645e-03     1.10789319e-03     0.00000000e+00    
           1.26843073e-03     1.12360390e-03     0.00000000e+00    
           1.28306437e-03     1.14348403e-03     0.00000000e+00    
           1.29196921e-03     1.16673764e-03     0.00000000e+00    
           1.29434827e-03     1.19184970e-03     0.00000000e+00    
           1.28989457e-03     1.21620984e-03     0.00000000e+00    
           3.06508760e-03     1.25878921e-03     0.00000000e+00    
           3.04497383e-03     1.27442426e-03     0.00000000e+00    
           3.02129029e-03     1.28340675e-03     0.00000000e+00    
           2.99656112e-03     1.28655101e-03     0.00000000e+00    
           2.97210086e-03     1.28371269e-03     0.00000000e+00    
           2.94849859e-03     1.27538666e-03     0.00000000e+00    
           2.92722508e-03     1.26184686e-03     0.00000000e+00    
           2.91000516e-03     1.24319142e-03     0.00000000e+00    
           1.97667629e-03     1.83809444e-03     0.00000000e+00    
           1.94713881e-03     1.83529465e-03     0.00000000e+00    
           1.91889366e-03     1.82602601e-03     0.00000000e+00    
           1.89325889e-03     1.81030261e-03     0.00000000e+00    
           1.87195756e-03     1.78897381e-03     0.00000000e+00    
           1.85658503e-03     1.76301319e-03     0.00000000e+00    
           1.84824283e-03     1.73384242e-03     0.00000000e+00    
           1.85365148e-03     1.67408516e-03     0.00000000e+00    
           1.86665170e-03     1.64711347e-03     0.00000000e+00    
           1.88596698e-03     1.62392284e-03     0.00000000e+00    
           1.91108068e-03     1.60615868e-03     0.00000000e+00    
           1.93955947e-03     1.59595185e-03     0.00000000e+00    
           1.96895050e-03     1.59245462e-03     0.00000000e+00    
           1.99870113e-03     1.59508921e-03     0.00000000e+00    
           2.52635451e-04    -1.79635332e-04     0.00000000e+00    
           2.73649057e-04    -1.58058130e-04     0.00000000e+00    
           2.88588926e-04    -1.32038855e-04     0.00000000e+00    
           2.96615617e-04    -1.02940343e-04     0.00000000e+00    
           2.97555525e-04    -7.32224944e-05     0.00000000e+00    
           2.91564560e-04    -4.40880613e-05     0.00000000e+00    
           2.78713385e-04    -1.69761497e-05     0.00000000e+00    
           2.59130960e-04     6.20198671e-06     0.00000000e+00    
           2.34061707e-04     2.34603594e-05     0.00000000e+00    
           2.42245267e-03     1.74264691e-03     0.00000000e+00    
           2.40071816e-03     1.74744800e-03     0.00000000e+00    
           2.37795082e-03     1.74741505e-03     0.00000000e+00    
           2.35574786e-03     1.74175983e-03     0.00000000e+00    
           2.33583921e-03     1.73106138e-03     0.00000000e+00    
           2.31894269e-03     1.71585754e-03     0.00000000e+00    
           2.30640126e-03     1.69669767e-03     0.00000000e+00    
           2.29909294e-03     1.67474675e-03     0.00000000e+00    
           2.30437820e-03     1.62799109e-03     0.00000000e+00    
           2.31660018e-03     1.60750386e-03     0.00000000e+00    
           2.33362359e-03     1.59149920e-03     0.00000000e+00    
           2.35387683e-03     1.58018083e-03     0.00000000e+00    
           2.37568049e-03     1.57417788e-03     0.00000000e+00    
           2.39865063e-03     1.57321023e-03     0.00000000e+00    
           2.42121262e-03     1.57802354e-03     0.00000000e+00    
           2.44168960e-03     1.58819580e-03     0.00000000e+00    
           6.72503840e-04    -1.76381262e-04     0.00000000e+00    
           6.79944293e-04    -1.53027431e-04     0.00000000e+00    
           6.80494762e-04    -1.28346583e-04     0.00000000e+00    
           6.73975446e-04    -1.04546707e-04     0.00000000e+00    
           6.61063474e-04    -8.36421677e-05     0.00000000e+00    
           1.79792149e-03     1.49806598e-04     0.00000000e+00    
           1.81623991e-03     1.59114308e-04     0.00000000e+00    
           1.83163094e-03     1.73198830e-04     0.00000000e+00    
           1.84231554e-03     1.91118190e-04     0.00000000e+00    
           1.84757751e-03     2.11423903e-04     0.00000000e+00    
           1.84717576e-03     2.32492719e-04     0.00000000e+00    
           1.84144324e-03     2.52114463e-04     0.00000000e+00    
           1.83124631e-03     2.69884156e-04     0.00000000e+00    
           1.81674387e-03     2.84566660e-04     0.00000000e+00    
           1.79812673e-03     2.94459722e-04     0.00000000e+00    
           1.77800551e-03     2.98841624e-04     0.00000000e+00    
           1.73826679e-03     2.92789831e-04     0.00000000e+00    
           1.72057969e-03     2.82810652e-04     0.00000000e+00    
           1.70579599e-03     2.68749485e-04     0.00000000e+00    
           1.69507216e-03     2.51502002e-04     0.00000000e+00    
           1.68918096e-03     2.32081758e-04     0.00000000e+00    
           1.68848690e-03     2.11645820e-04     0.00000000e+00    
           1.69353478e-03     1.91415515e-04     0.00000000e+00    
           1.70457200e-03     1.73152963e-04     0.00000000e+00    
           1.72023335e-03     1.59169780e-04     0.00000000e+00    
           1.73839985e-03     1.49994201e-04     0.00000000e+00    
           1.75806298e-03     1.45282669e-04     0.00000000e+00    
           3.20994621e-03     1.41085871e-03     0.00000000e+00    
           3.22222919e-03     1.43504224e-03     0.00000000e+00    
           3.22814216e-03     1.46163243e-03     0.00000000e+00    
           3.22693074e-03     1.48865720e-03     0.00000000e+00    
           3.21868062e-03     1.51479081e-03     0.00000000e+00    
           3.20321857e-03     1.53816235e-03     0.00000000e+00    
           3.18256463e-03     1.55600486e-03     0.00000000e+00    
           3.15867993e-03     1.56842347e-03     0.00000000e+00    
           3.13274469e-03     1.57531502e-03     0.00000000e+00    
           3.07894172e-03     1.57051021e-03     0.00000000e+00    
           3.05459485e-03     1.55862002e-03     0.00000000e+00    
           3.03396210e-03     1.54093932e-03     0.00000000e+00    
           3.01838480e-03     1.51876151e-03     0.00000000e+00    
           3.00863315e-03     1.49335747e-03     0.00000000e+00    
           3.00613861e-03     1.46606250e-03     0.00000000e+00    
           3.01057613e-03     1.43905357e-03     0.00000000e+00    
           3.02142417e-03     1.41435023e-03     0.00000000e+00    
           3.03762453e-03     1.39286765e-03     0.00000000e+00    
           1.28098193e-03     1.36654940e-03     0.00000000e+00    
           1.30416011e-03     1.36215461e-03     0.00000000e+00    
           1.32751500e-03     1.36231724e-03     0.00000000e+00    
           1.35058700e-03     1.36731414e-03     0.00000000e+00    
           1.37257297e-03     1.37660862e-03     0.00000000e+00    
           1.81671139e-03     1.25092792e-03     0.00000000e+00    
           1.84304849e-03     1.26340799e-03     0.00000000e+00    
           1.86597847e-03     1.28136890e-03     0.00000000e+00    
           1.88424368e-03     1.30438549e-03     0.00000000e+00    
           1.89622724e-03     1.33137405e-03     0.00000000e+00    
           1.90083019e-03     1.36105681e-03     0.00000000e+00    
           1.89792609e-03     1.39037648e-03     0.00000000e+00    
           1.88845361e-03     1.41827611e-03     0.00000000e+00    
           1.87256350e-03     1.44303450e-03     0.00000000e+00    
           1.85086147e-03     1.46336039e-03     0.00000000e+00    
           1.82412902e-03     1.47723069e-03     0.00000000e+00    
           1.79587281e-03     1.48369989e-03     0.00000000e+00    
           1.73836632e-03     1.47814606e-03     0.00000000e+00    
           1.71161781e-03     1.46589556e-03     0.00000000e+00    
           1.68848282e-03     1.44749100e-03     0.00000000e+00    
           1.67049386e-03     1.42401969e-03     0.00000000e+00    
           1.65888795e-03     1.39694766e-03     0.00000000e+00    
           1.65431551e-03     1.36786059e-03     0.00000000e+00    
           1.65650574e-03     1.33864558e-03     0.00000000e+00    
           1.66588218e-03     1.31074258e-03     0.00000000e+00    
           1.68237090e-03     1.28573726e-03     0.00000000e+00    
           1.70470937e-03     1.26594037e-03     0.00000000e+00    
           1.73093623e-03     1.25241885e-03     0.00000000e+00    
           1.75920606e-03     1.24541507e-03     0.00000000e+00    
           2.83082412e-03     1.47121947e-03     0.00000000e+00    
           2.85122800e-03     1.48304610e-03     0.00000000e+00    
           2.86749308e-03     1.50022306e-03     0.00000000e+00    
           2.87850457e-03     1.52117270e-03     0.00000000e+00    
           2.88293883e-03     1.54448091e-03     0.00000000e+00    
           2.88054487e-03     1.56832812e-03     0.00000000e+00    
           2.87091685e-03     1.59068371e-03     0.00000000e+00    
           2.85490230e-03     1.60892308e-03     0.00000000e+00    
           2.83452356e-03     1.62165856e-03     0.00000000e+00    
           2.81198183e-03     1.62812369e-03     0.00000000e+00    
           2.76516750e-03     1.62312761e-03     0.00000000e+00    
           2.74466164e-03     1.61110912e-03     0.00000000e+00    
           2.72844383e-03     1.59381516e-03     0.00000000e+00    
           2.71782069e-03     1.57240452e-03     0.00000000e+00    
           2.71379738e-03     1.54923263e-03     0.00000000e+00    
           2.71614757e-03     1.52576517e-03     0.00000000e+00    
           2.72544217e-03     1.50365720e-03     0.00000000e+00    
           2.74173100e-03     1.48552738e-03     0.00000000e+00    
           2.76155490e-03     1.47335744e-03     0.00000000e+00    
           2.78391386e-03     1.46650570e-03     0.00000000e+00    
           1.42161513e-03     4.05132392e-04     0.00000000e+00    
           1.44631194e-03     4.17695002e-04     0.00000000e+00    
           1.46672700e-03     4.36403498e-04     0.00000000e+00    
           1.48125284e-03     4.59435454e-04     0.00000000e+00    
           1.48976641e-03     4.85310971e-04     0.00000000e+00    
           1.49162172e-03     5.12645871e-04     0.00000000e+00    
           1.48599839e-03     5.39619010e-04     0.00000000e+00    
           1.47268770e-03     5.64627117e-04     0.00000000e+00    
           1.45258848e-03     5.84188965e-04     0.00000000e+00    
           1.42892031e-03     5.97549952e-04     0.00000000e+00    
           1.40279287e-03     6.04827655e-04     0.00000000e+00    
           1.34885008e-03     6.00515283e-04     0.00000000e+00    
           1.32393138e-03     5.88307332e-04     0.00000000e+00    
           1.30299712e-03     5.70205040e-04     0.00000000e+00    
           1.28754333e-03     5.47228847e-04     0.00000000e+00    
           1.27876562e-03     5.20903908e-04     0.00000000e+00    
           1.27734768e-03     4.92996653e-04     0.00000000e+00    
           1.28372374e-03     4.65714373e-04     0.00000000e+00    
           1.29733898e-03     4.40979144e-04     0.00000000e+00    
           1.31737744e-03     4.21320496e-04     0.00000000e+00    
           1.34130113e-03     4.07513027e-04     0.00000000e+00    
           1.36753661e-03     4.00281482e-04     0.00000000e+00    
           3.41544364e-04     3.34588723e-04     0.00000000e+00    
           3.30135401e-04     3.11601500e-04     0.00000000e+00    
           3.25084577e-04     2.86640017e-04     0.00000000e+00    
           3.26328387e-04     2.61543260e-04     0.00000000e+00    
           3.33583710e-04     2.37467379e-04     0.00000000e+00    
           3.46706714e-04     2.15845037e-04     0.00000000e+00    
           3.65815213e-04     1.98401831e-04     0.00000000e+00    
           3.88014538e-04     1.87589583e-04     0.00000000e+00    
           4.11784800e-04     1.81234456e-04     0.00000000e+00    
           4.61899588e-04     1.85132434e-04     0.00000000e+00    
           4.84798948e-04     1.96210269e-04     0.00000000e+00    
           5.04097203e-04     2.12742030e-04     0.00000000e+00    
           5.18746965e-04     2.33523868e-04     0.00000000e+00    
           5.27599477e-04     2.57020904e-04     0.00000000e+00    
           5.30509686e-04     2.82077788e-04     0.00000000e+00    
           5.26609540e-04     3.07456765e-04     0.00000000e+00    
           5.16109576e-04     3.30901006e-04     0.00000000e+00    
           4.99633548e-04     3.50794871e-04     0.00000000e+00    
           2.25526234e-03     3.74774245e-04     0.00000000e+00    
           2.23032897e-03     3.78182187e-04     0.00000000e+00    
           2.20472296e-03     3.76214128e-04     0.00000000e+00    
           2.18016841e-03     3.68125679e-04     0.00000000e+00    
           9.61801619e-04     6.89604902e-04     0.00000000e+00    
           9.87553736e-04     7.02194753e-04     0.00000000e+00    
           1.00914249e-03     7.21125340e-04     0.00000000e+00    
           1.02489337e-03     7.45095487e-04     0.00000000e+00    
           1.03364210e-03     7.72545114e-04     0.00000000e+00    
           1.03496760e-03     8.01316753e-04     0.00000000e+00    
           1.02876464e-03     8.29250494e-04     0.00000000e+00    
           1.01493823e-03     8.54834856e-04     0.00000000e+00    
           9.94231319e-04     8.75371625e-04     0.00000000e+00    
           9.69448127e-04     8.89740651e-04     0.00000000e+00    
           9.42255952e-04     8.97318707e-04     0.00000000e+00    
           8.86105932e-04     8.92145617e-04     0.00000000e+00    
           8.60866334e-04     8.78833409e-04     0.00000000e+00    
           8.39891843e-04     8.59790016e-04     0.00000000e+00    
           8.24199058e-04     8.36156541e-04     0.00000000e+00    
           8.15060397e-04     8.09096906e-04     0.00000000e+00    
           8.13589722e-04     7.80487142e-04     0.00000000e+00    
           8.20064044e-04     7.52102758e-04     0.00000000e+00    
           8.34004488e-04     7.26821308e-04     0.00000000e+00    
           8.54273618e-04     7.06332212e-04     0.00000000e+00    