<?xml version="1.0"?>
<VTKFile type="UnstructuredGrid" version="0.1">
  <UnstructuredGrid>
    <Piece NumberOfPoints="1034" NumberOfCells="1614">
      <Points>
        <DataArray type="Float32" NumberOfComponents="3">
           5.21582007e-01     5.11657000e-01     0.00000000e+00    
           5.07319987e-01     5.11657000e-01     0.00000000e+00    
           4.65243995e-01     5.17907977e-01     0.00000000e+00    
           4.65243995e-01     5.04921973e-01     0.00000000e+00    
           4.75246996e-01     5.11415005e-01     0.00000000e+00    
           5.33852994e-01     5.04921973e-01     0.00000000e+00    
           5.33852994e-01     5.17907977e-01     0.00000000e+00    
           4.83779997e-01     5.34618974e-01     0.00000000e+00    
           4.68984991e-01     5.34618974e-01     0.00000000e+00    
           4.76381987e-01     5.23841977e-01     0.00000000e+00    
           4.68984991e-01     4.66010004e-01     0.00000000e+00    
           4.83779997e-01     4.66010004e-01     0.00000000e+00    
           4.99920011e-01     5.34618974e-01     0.00000000e+00    
           4.89203990e-01     5.34618974e-01     0.00000000e+00    
           4.94562000e-01     5.22280991e-01     0.00000000e+00    
           4.89203990e-01     4.66010004e-01     0.00000000e+00    
           4.99920011e-01     4.66010004e-01     0.00000000e+00    
           5.32517016e-01     4.74112004e-01     0.00000000e+00    
           5.17961025e-01     4.74112004e-01     0.00000000e+00    
           5.33852994e-01     5.19801974e-01     0.00000000e+00    
           5.33852994e-01     5.29603004e-01     0.00000000e+00    
           5.19536972e-01     5.24702013e-01     0.00000000e+00    
           4.65243995e-01     5.29603004e-01     0.00000000e+00    
           4.65243995e-01     5.19801974e-01     0.00000000e+00    
           4.92487997e-01     5.17117977e-01     0.00000000e+00    
           4.76904988e-01     5.17117977e-01     0.00000000e+00    
           5.17996013e-01     5.27033985e-01     0.00000000e+00    
           5.04473984e-01     5.27033985e-01     0.00000000e+00    
           5.08446991e-01     4.83435005e-01     0.00000000e+00    
           4.94414002e-01     4.83435005e-01     0.00000000e+00    
           4.65243995e-01     4.83101994e-01     0.00000000e+00    
           4.65243995e-01     4.74415004e-01     0.00000000e+00    
           4.78336990e-01     4.78758007e-01     0.00000000e+00    
           5.33852994e-01     4.74415004e-01     0.00000000e+00    
           5.33852994e-01     4.83101994e-01     0.00000000e+00    
           4.80668008e-01     4.95810986e-01     0.00000000e+00    
           4.66084987e-01     4.95810986e-01     0.00000000e+00    
           4.93930012e-01     4.79214013e-01     0.00000000e+00    
           4.78967011e-01     4.79214013e-01     0.00000000e+00    
           5.09284973e-01     4.97658014e-01     0.00000000e+00    
           4.95503992e-01     4.97658014e-01     0.00000000e+00    
           5.33011973e-01     5.01751006e-01     0.00000000e+00    
           5.17829001e-01     5.01751006e-01     0.00000000e+00    
           4.95451003e-01     5.00564992e-01     0.00000000e+00    
           4.80922014e-01     5.00564992e-01     0.00000000e+00    
           5.25367022e-01     4.88312006e-01     0.00000000e+00    
           5.09521008e-01     4.88312006e-01     0.00000000e+00    
           4.65243995e-01     5.34618974e-01     0.00000000e+00    
           4.65243995e-01     4.66010004e-01     0.00000000e+00    
           5.33852994e-01     4.66010004e-01     0.00000000e+00    
           5.33852994e-01     5.34618974e-01     0.00000000e+00    
           5.21338999e-01     5.13502657e-01     0.00000000e+00    
           5.20626605e-01     5.15222490e-01     0.00000000e+00    
           5.19493401e-01     5.16699374e-01     0.00000000e+00    
           5.18016517e-01     5.17832637e-01     0.00000000e+00    
           5.16296625e-01     5.18545032e-01     0.00000000e+00    
           5.14451027e-01     5.18787980e-01     0.00000000e+00    
           5.12605369e-01     5.18545032e-01     0.00000000e+00    
           5.10885477e-01     5.17832637e-01     0.00000000e+00    
           5.09408593e-01     5.16699374e-01     0.00000000e+00    
           5.08275390e-01     5.15222490e-01     0.00000000e+00    
           5.07562995e-01     5.13502657e-01     0.00000000e+00    
           5.07562995e-01     5.09811342e-01     0.00000000e+00    
           5.08275390e-01     5.08091509e-01     0.00000000e+00    
           5.09408593e-01     5.06614625e-01     0.00000000e+00    
           5.10885477e-01     5.05481362e-01     0.00000000e+00    
           5.12605369e-01     5.04768968e-01     0.00000000e+00    
           5.14451027e-01     5.04526019e-01     0.00000000e+00    
           5.16296625e-01     5.04768968e-01     0.00000000e+00    
           5.18016517e-01     5.05481362e-01     0.00000000e+00    
           5.19493401e-01     5.06614625e-01     0.00000000e+00    
           5.20626605e-01     5.08091509e-01     0.00000000e+00    
           5.21338999e-01     5.09811342e-01     0.00000000e+00    
           4.66931671e-01     5.04409373e-01     0.00000000e+00    
           4.68693614e-01     5.04328012e-01     0.00000000e+00    
           4.70421344e-01     5.04682958e-01     0.00000000e+00    
           4.72008497e-01     5.05452335e-01     0.00000000e+00    
           4.73357379e-01     5.06588817e-01     0.00000000e+00    
           4.74384934e-01     5.08022368e-01     0.00000000e+00    
           4.75027919e-01     5.09664834e-01     0.00000000e+00    
           4.75028187e-01     5.13165236e-01     0.00000000e+00    
           4.74385172e-01     5.14807761e-01     0.00000000e+00    
           4.73357558e-01     5.16241372e-01     0.00000000e+00    
           4.72008646e-01     5.17377913e-01     0.00000000e+00    
           4.70421433e-01     5.18147290e-01     0.00000000e+00    
           4.68693614e-01     5.18502235e-01     0.00000000e+00    
           4.66931641e-01     5.18420875e-01     0.00000000e+00    
           5.32303810e-01     5.16964078e-01     0.00000000e+00    
           5.31043947e-01     5.15658796e-01     0.00000000e+00    
           5.30155540e-01     5.14077127e-01     0.00000000e+00    
           5.29696345e-01     5.12322068e-01     0.00000000e+00    
           5.29696345e-01     5.10507941e-01     0.00000000e+00    
           5.30155540e-01     5.08752882e-01     0.00000000e+00    
           5.31043947e-01     5.07171214e-01     0.00000000e+00    
           5.32303810e-01     5.05865932e-01     0.00000000e+00    
           4.68517244e-01     5.32760799e-01     0.00000000e+00    
           4.68509018e-01     5.30844629e-01     0.00000000e+00    
           4.68960851e-01     5.28982460e-01     0.00000000e+00    
           4.69846308e-01     5.27283132e-01     0.00000000e+00    
           4.71113682e-01     5.25845945e-01     0.00000000e+00    
           4.72688884e-01     5.24754822e-01     0.00000000e+00    
           4.74479854e-01     5.24073541e-01     0.00000000e+00    
           4.78284091e-01     5.24073601e-01     0.00000000e+00    
           4.80075032e-01     5.24754822e-01     0.00000000e+00    
           4.81650203e-01     5.25845885e-01     0.00000000e+00    
           4.82917547e-01     5.27283013e-01     0.00000000e+00    
           4.83803004e-01     5.28982282e-01     0.00000000e+00    
           4.84254897e-01     5.30844331e-01     0.00000000e+00    
           4.84246761e-01     5.32760441e-01     0.00000000e+00    
           4.82887864e-01     4.67691004e-01     0.00000000e+00    
           4.81620818e-01     4.69110936e-01     0.00000000e+00    
           4.80051905e-01     4.70188022e-01     0.00000000e+00    
           4.78271484e-01     4.70860153e-01     0.00000000e+00    
           4.76382166e-01     4.71088618e-01     0.00000000e+00    
           4.74492878e-01     4.70860243e-01     0.00000000e+00    
           4.72712427e-01     4.70188200e-01     0.00000000e+00    
           4.71143454e-01     4.69111174e-01     0.00000000e+00    
           4.69876349e-01     4.67691302e-01     0.00000000e+00    
           4.88103986e-01     5.33086061e-01     0.00000000e+00    
           4.87431526e-01     5.31323195e-01     0.00000000e+00    
           4.87231195e-01     5.29447019e-01     0.00000000e+00    
           4.87516224e-01     5.27581930e-01     0.00000000e+00    
           4.88267750e-01     5.25851250e-01     0.00000000e+00    
           4.89436030e-01     5.24369657e-01     0.00000000e+00    
           4.90943670e-01     5.23235261e-01     0.00000000e+00    
           4.92690891e-01     5.22523046e-01     0.00000000e+00    
           4.96432930e-01     5.22523701e-01     0.00000000e+00    
           4.98180002e-01     5.23235798e-01     0.00000000e+00    
           4.99687493e-01     5.24370134e-01     0.00000000e+00    
           5.00855684e-01     5.25851607e-01     0.00000000e+00    
           5.01607120e-01     5.27582109e-01     0.00000000e+00    
           5.01892149e-01     5.29447079e-01     0.00000000e+00    
           5.01691818e-01     5.31323016e-01     0.00000000e+00    
           5.01019418e-01     5.33085763e-01     0.00000000e+00    
           4.98371124e-01     4.67269689e-01     0.00000000e+00    
           4.96539861e-01     4.68064904e-01     0.00000000e+00    
           4.94562000e-01     4.68336672e-01     0.00000000e+00    
           4.92584139e-01     4.68064904e-01     0.00000000e+00    
           4.90752876e-01     4.67269689e-01     0.00000000e+00    
           5.32269001e-01     4.75995690e-01     0.00000000e+00    
           5.31541944e-01     4.77750987e-01     0.00000000e+00    
           5.30385315e-01     4.79258329e-01     0.00000000e+00    
           5.28877974e-01     4.80414927e-01     0.00000000e+00    
[...]
      <PointData>
        <DataArray type="Float32" Name="Displacement" NumberOfComponents="3">
           2.93468731e-03     1.28971064e-03     0.00000000e+00    
           2.91400380e-03     1.45892752e-03     0.00000000e+00    
           1.46139867e-03     1.40122941e-03     0.00000000e+00    
           1.25744788e-03     1.38302450e-03     0.00000000e+00    
           1.37404306e-03     1.23771385e-03     0.00000000e+00    
           3.30744800e-03     1.38302450e-03     0.00000000e+00    
           3.51139857e-03     1.40122941e-03     0.00000000e+00    
           2.30370951e-03     1.82115461e-03     0.00000000e+00    
           2.28275894e-03     2.08003586e-03     0.00000000e+00    
           2.10268260e-03     1.93479797e-03     0.00000000e+00    
           2.32758946e-04     3.00357970e-05     0.00000000e+00    
           2.53709470e-04    -2.28845383e-04     0.00000000e+00    
           2.81227706e-03     1.82746490e-03     0.00000000e+00    
           2.79610488e-03     1.97853125e-03     0.00000000e+00    
           2.62708613e-03     1.88597094e-03     0.00000000e+00    
           7.46104924e-04    -7.14686612e-05     0.00000000e+00    
           7.62276992e-04    -2.22535149e-04     0.00000000e+00    
           2.01772549e-03     1.58509472e-04     0.00000000e+00    
           1.99745852e-03     3.25080240e-04     0.00000000e+00    
           3.48309195e-03     1.55884319e-03     0.00000000e+00    
           3.63332522e-03     1.57333782e-03     0.00000000e+00    
           3.53819481e-03     1.78413966e-03     0.00000000e+00    
           1.58332509e-03     1.57333782e-03     0.00000000e+00    
           1.43309194e-03     1.55884319e-03     0.00000000e+00    
           2.03983975e-03     1.41601276e-03     0.00000000e+00    
           2.01824354e-03     1.68135995e-03     0.00000000e+00    
           3.20139248e-03     1.66538486e-03     0.00000000e+00    
           3.18204099e-03     1.85742113e-03     0.00000000e+00    
           1.59156136e-03     4.44341276e-04     0.00000000e+00    
           1.57270243e-03     6.86366344e-04     0.00000000e+00    
           5.40959707e-04     4.07902320e-04     0.00000000e+00    
           4.01954079e-04     3.95909155e-04     0.00000000e+00    
           4.89783415e-04     1.94393724e-04     0.00000000e+00    
           2.45195418e-03     3.95909155e-04     0.00000000e+00    
           2.59095966e-03     4.07902320e-04     0.00000000e+00    
           1.06375862e-03     7.62753829e-04     0.00000000e+00    
           1.04375195e-03     1.01157918e-03     0.00000000e+00    
           9.28821915e-04     2.31304410e-04     0.00000000e+00    
           9.08919435e-04     4.35702648e-04     0.00000000e+00    
           1.96706085e-03     6.98765973e-04     0.00000000e+00    
           1.94713310e-03     9.51262773e-04     0.00000000e+00    
           2.88048456e-03     1.01457094e-03     0.00000000e+00    
           2.85951188e-03     1.26540952e-03     0.00000000e+00    
           1.70638540e-03     9.35068296e-04     0.00000000e+00    
           1.68634020e-03     1.15891267e-03     0.00000000e+00    
           2.09573703e-03     4.71325155e-04     0.00000000e+00    
           2.07356666e-03     6.47900801e-04     0.00000000e+00    
           2.05000001e-03     2.05000001e-03     0.00000000e+00    
           0.00000000e+00     0.00000000e+00     0.00000000e+00    
           2.05000001e-03     0.00000000e+00     0.00000000e+00    
           4.10000002e-03     2.05000001e-03     0.00000000e+00    
           2.95616686e-03     1.29579986e-03     0.00000000e+00    
           2.97581544e-03     1.30653614e-03     0.00000000e+00    
           2.99206236e-03     1.32209063e-03     0.00000000e+00    
           3.00379423e-03     1.34140637e-03     0.00000000e+00    
           3.01014027e-03     1.36280246e-03     0.00000000e+00    
           3.01074656e-03     1.38519448e-03     0.00000000e+00    
           3.00564105e-03     1.40711828e-03     0.00000000e+00    
           2.99437647e-03     1.42710435e-03     0.00000000e+00    
           2.97742570e-03     1.44307676e-03     0.00000000e+00    
           2.95760250e-03     1.45348115e-03     0.00000000e+00    
           2.93603889e-03     1.45886966e-03     0.00000000e+00    
           2.89250445e-03     1.45349337e-03     0.00000000e+00    
           2.87283980e-03     1.44322810e-03     0.00000000e+00    
           2.85629742e-03     1.42813788e-03     0.00000000e+00    
           2.84415856e-03     1.40941131e-03     0.00000000e+00    
           2.83749308e-03     1.38801080e-03     0.00000000e+00    
           2.83712358e-03     1.36530190e-03     0.00000000e+00    
           2.84342002e-03     1.34312303e-03     0.00000000e+00    
           2.85499147e-03     1.32382929e-03     0.00000000e+00    
           2.87050800e-03     1.30762905e-03     0.00000000e+00    
           2.88967695e-03     1.29564118e-03     0.00000000e+00    
           2.91169668e-03     1.28941110e-03     0.00000000e+00    
           1.25171710e-03     1.35557808e-03     0.00000000e+00    
           1.25283829e-03     1.32789451e-03     0.00000000e+00    
           1.26062927e-03     1.30128779e-03     0.00000000e+00    
           1.27543020e-03     1.27736561e-03     0.00000000e+00    
           1.29624608e-03     1.25836860e-03     0.00000000e+00    
           1.32047466e-03     1.24519446e-03     0.00000000e+00    
           1.34678558e-03     1.23840943e-03     0.00000000e+00    
           1.40062219e-03     1.24329608e-03     0.00000000e+00    
           1.42555730e-03     1.25490665e-03     0.00000000e+00    
           1.44691288e-03     1.27240655e-03     0.00000000e+00    
           1.46343734e-03     1.29461999e-03     0.00000000e+00    
           1.47360016e-03     1.32060528e-03     0.00000000e+00    
           1.47653010e-03     1.34865730e-03     0.00000000e+00    
           1.47198571e-03     1.37596123e-03     0.00000000e+00    
           3.49472882e-03     1.42404006e-03     0.00000000e+00    
           3.47239361e-03     1.44182937e-03     0.00000000e+00    
           3.44601041e-03     1.45240268e-03     0.00000000e+00    
           3.41829332e-03     1.45633856e-03     0.00000000e+00    
           3.39078321e-03     1.45345589e-03     0.00000000e+00    
           3.36424611e-03     1.44431251e-03     0.00000000e+00    
           3.34031205e-03     1.42924406e-03     0.00000000e+00    
           3.32089444e-03     1.40843343e-03     0.00000000e+00    
           2.24942830e-03     2.08487175e-03     0.00000000e+00    
           2.21610698e-03     2.08204240e-03     0.00000000e+00    
           2.18425482e-03     2.07181205e-03     0.00000000e+00    
           2.15533748e-03     2.05430365e-03     0.00000000e+00    
           2.13126675e-03     2.03045877e-03     0.00000000e+00    
           2.11380236e-03     2.00138637e-03     0.00000000e+00    
           2.10416806e-03     1.96870137e-03     0.00000000e+00    
           2.10956577e-03     1.90155348e-03     0.00000000e+00    
           2.12388881e-03     1.87107548e-03     0.00000000e+00    
           2.14533741e-03     1.84479763e-03     0.00000000e+00    
           2.17323727e-03     1.82454416e-03     0.00000000e+00    
           2.20500724e-03     1.81258190e-03     0.00000000e+00    
           2.23801634e-03     1.80818117e-03     0.00000000e+00    
           2.27151834e-03     1.81080517e-03     0.00000000e+00    
           2.82442750e-04    -2.11308608e-04     0.00000000e+00    
           3.06270405e-04    -1.87242054e-04     0.00000000e+00    
           3.23324552e-04    -1.58113922e-04     0.00000000e+00    
           3.32636526e-04    -1.25479579e-04     0.00000000e+00    
           3.34002019e-04    -9.20423845e-05     0.00000000e+00    
           3.27535381e-04    -5.91848693e-05     0.00000000e+00    
           3.13328841e-04    -2.85733586e-05     0.00000000e+00    
           2.91604316e-04    -2.30931460e-06     0.00000000e+00    
           2.63800932e-04     1.74575653e-05     0.00000000e+00    
           2.77271285e-03     1.99069805e-03     0.00000000e+00    
           2.74744420e-03     1.99680426e-03     0.00000000e+00    
           2.72091804e-03     1.99713116e-03     0.00000000e+00    
           2.69497163e-03     1.99088221e-03     0.00000000e+00    
           2.67158728e-03     1.97865698e-03     0.00000000e+00    
           2.65171658e-03     1.96108501e-03     0.00000000e+00    
           2.63690320e-03     1.93887053e-03     0.00000000e+00    
           2.62818369e-03     1.91337499e-03     0.00000000e+00    
           2.63352785e-03     1.85903255e-03     0.00000000e+00    
           2.64713494e-03     1.83502352e-03     0.00000000e+00    
           2.66638515e-03     1.81591150e-03     0.00000000e+00    
           2.68962956e-03     1.80221652e-03     0.00000000e+00    
           2.71490961e-03     1.79479748e-03     0.00000000e+00    
           2.74160062e-03     1.79331761e-03     0.00000000e+00    
           2.76791072e-03     1.79855980e-03     0.00000000e+00    
           2.79192068e-03     1.81008666e-03     0.00000000e+00    
           7.78346264e-04    -1.99131464e-04     0.00000000e+00    
           7.87357159e-04    -1.72061889e-04     0.00000000e+00    
           7.88417878e-04    -1.43379671e-04     0.00000000e+00    
           7.81362935e-04    -1.15624738e-04     0.00000000e+00    
           7.66913465e-04    -9.10207746e-05     0.00000000e+00    
           2.03933893e-03     1.63311372e-04     0.00000000e+00    
           2.05928739e-03     1.73317792e-04     0.00000000e+00    
           2.07607797e-03     1.88492850e-04     0.00000000e+00    
           2.08784337e-03     2.07837875e-04     0.00000000e+00    
           2.09378824e-03     2.29801401e-04     0.00000000e+00    
           2.09363480e-03     2.52634316e-04     0.00000000e+00    
           2.08766875e-03     2.74029822e-04     0.00000000e+00    
           2.07677134e-03     2.93449615e-04     0.00000000e+00    
           2.06114189e-03     3.09544004e-04     0.00000000e+00    
           2.04110285e-03     3.20539257e-04     0.00000000e+00    
           2.01935531e-03     3.25649802e-04     0.00000000e+00    
           1.97606999e-03     3.19612009e-04     0.00000000e+00    
           1.95676135e-03     3.08918447e-04     0.00000000e+00    
           1.94059359e-03     2.93749443e-04     0.00000000e+00    
           1.92880887e-03     2.75079918e-04     0.00000000e+00    
           1.92224595e-03     2.54006474e-04     0.00000000e+00    
           1.92133454e-03     2.31790793e-04     0.00000000e+00    
           1.92666089e-03     2.09774807e-04     0.00000000e+00    
           1.93842733e-03     1.89852464e-04     0.00000000e+00    
           1.95512665e-03     1.74461733e-04     0.00000000e+00    
           1.97467091e-03     1.64126512e-04     0.00000000e+00    
           1.99599238e-03     1.58707771e-04     0.00000000e+00    
           3.65357473e-03     1.59607909e-03     0.00000000e+00    
           3.66761908e-03     1.62324402e-03     0.00000000e+00    
           3.67450947e-03     1.65316695e-03     0.00000000e+00    
           3.67341284e-03     1.68367987e-03     0.00000000e+00    
           3.66437784e-03     1.71325554e-03     0.00000000e+00    
           3.64737213e-03     1.73974724e-03     0.00000000e+00    
           3.62455333e-03     1.76030525e-03     0.00000000e+00    
           3.59788304e-03     1.77475379e-03     0.00000000e+00    
           3.56876967e-03     1.78284210e-03     0.00000000e+00    
           3.50816152e-03     1.77797023e-03     0.00000000e+00    
           3.48061905e-03     1.76478713e-03     0.00000000e+00    
           3.45720211e-03     1.74503820e-03     0.00000000e+00    
           3.43945227e-03     1.72018213e-03     0.00000000e+00    
           3.42823798e-03     1.69165141e-03     0.00000000e+00    
           3.42507171e-03     1.66096934e-03     0.00000000e+00    
           3.42963031e-03     1.63055828e-03     0.00000000e+00    
           3.44141619e-03     1.60256168e-03     0.00000000e+00    
           3.45937326e-03     1.57810363e-03     0.00000000e+00    
           1.45777140e-03     1.54763903e-03     0.00000000e+00    
           1.48387579e-03     1.54220173e-03     0.00000000e+00    
           1.51029369e-03     1.54206692e-03     0.00000000e+00    
           1.53634662e-03     1.54745975e-03     0.00000000e+00    
           1.56119012e-03     1.55777123e-03     0.00000000e+00    
           2.07136152e-03     1.42253237e-03     0.00000000e+00    
           2.10055616e-03     1.43612723e-03     0.00000000e+00    
           2.12601200e-03     1.45585579e-03     0.00000000e+00    
           2.14630971e-03     1.48119440e-03     0.00000000e+00    
           2.15970958e-03     1.51093095e-03     0.00000000e+00    
           2.16502324e-03     1.54363085e-03     0.00000000e+00    
           2.16211821e-03     1.57603412e-03     0.00000000e+00    
           2.15190672e-03     1.60693575e-03     0.00000000e+00    
           2.13456969e-03     1.63444341e-03     0.00000000e+00    
           2.11080001e-03     1.65709422e-03     0.00000000e+00    
           2.08156416e-03     1.67276745e-03     0.00000000e+00    
           2.05040141e-03     1.68040697e-03     0.00000000e+00    
           1.98677229e-03     1.67480484e-03     0.00000000e+00    
           1.95717416e-03     1.66141777e-03     0.00000000e+00    
           1.93152914e-03     1.64123450e-03     0.00000000e+00    
           1.91152084e-03     1.61543710e-03     0.00000000e+00    
           1.89850689e-03     1.58562220e-03     0.00000000e+00    
           1.89320813e-03     1.55353104e-03     0.00000000e+00    
           1.89542386e-03     1.52121426e-03     0.00000000e+00    
           1.90559262e-03     1.49030518e-03     0.00000000e+00    
           1.92356436e-03     1.46255456e-03     0.00000000e+00    
           1.94789085e-03     1.44045125e-03     0.00000000e+00    
           1.97660760e-03     1.42509944e-03     0.00000000e+00    
           2.00777105e-03     1.41695386e-03     0.00000000e+00    
           3.22859315e-03     1.67164672e-03     0.00000000e+00    
           3.25268251e-03     1.68520748e-03     0.00000000e+00    
           3.27200303e-03     1.70508435e-03     0.00000000e+00    
           3.28518078e-03     1.72949315e-03     0.00000000e+00    
           3.29073309e-03     1.75672956e-03     0.00000000e+00    
           3.28830630e-03     1.78465887e-03     0.00000000e+00    
           3.27755162e-03     1.81090180e-03     0.00000000e+00    
           3.25941946e-03     1.83259416e-03     0.00000000e+00    
           3.23595945e-03     1.84804772e-03     0.00000000e+00    
           3.20971897e-03     1.85612869e-03     0.00000000e+00    
           3.15489294e-03     1.85104832e-03     0.00000000e+00    
           3.13070416e-03     1.83733681e-03     0.00000000e+00    
           3.11141717e-03     1.81738345e-03     0.00000000e+00    
           3.09858029e-03     1.79256219e-03     0.00000000e+00    
           3.09339189e-03     1.76548422e-03     0.00000000e+00    
           3.09573370e-03     1.73793978e-03     0.00000000e+00    
           3.10618151e-03     1.71190291e-03     0.00000000e+00    
           3.12466593e-03     1.69030903e-03     0.00000000e+00    
           3.14756692e-03     1.67541904e-03     0.00000000e+00    
           3.17362277e-03     1.66689022e-03     0.00000000e+00    
           1.62301946e-03     4.50748601e-04     0.00000000e+00    
           1.65194448e-03     4.65118152e-04     0.00000000e+00    
           1.67598820e-03     4.86646488e-04     0.00000000e+00    
           1.69331813e-03     5.13336039e-04     0.00000000e+00    
           1.70360156e-03     5.43489063e-04     0.00000000e+00    
           1.70605222e-03     5.75428072e-04     0.00000000e+00    
           1.69979793e-03     6.07021677e-04     0.00000000e+00    
           1.68469525e-03     6.36326731e-04     0.00000000e+00    
           1.66182837e-03     6.59645593e-04     0.00000000e+00    
           1.63450628e-03     6.75883261e-04     0.00000000e+00    
           1.60411303e-03     6.84883678e-04     0.00000000e+00    
           1.54111546e-03     6.80428813e-04     0.00000000e+00    
           1.51196134e-03     6.66429230e-04     0.00000000e+00    
           1.48738048e-03     6.45508291e-04     0.00000000e+00    
           1.46912306e-03     6.18848659e-04     0.00000000e+00    
           1.45859714e-03     5.88226831e-04     0.00000000e+00    
           1.45662506e-03     5.55702078e-04     0.00000000e+00    
           1.46363338e-03     5.23813127e-04     0.00000000e+00    
           1.47900824e-03     4.94810753e-04     0.00000000e+00    
           1.50177430e-03     4.71419742e-04     0.00000000e+00    
           1.52934750e-03     4.54717898e-04     0.00000000e+00    
           1.55988254e-03     4.45725076e-04     0.00000000e+00    
           3.82394850e-04     3.74146475e-04     0.00000000e+00    
           3.68969922e-04     3.47887311e-04     0.00000000e+00    
           3.62764869e-04     3.19265237e-04     0.00000000e+00    
           3.63789004e-04     2.90332944e-04     0.00000000e+00    
           3.71789240e-04     2.62479240e-04     0.00000000e+00    
           3.86579923e-04     2.37379689e-04     0.00000000e+00    
           4.08135413e-04     2.16960630e-04     0.00000000e+00    
           4.33443784e-04     2.03838732e-04     0.00000000e+00    
           4.60799027e-04     1.96064371e-04     0.00000000e+00    
           5.18544868e-04     1.99967268e-04     0.00000000e+00    
           5.45018935e-04     2.12470215e-04     0.00000000e+00    
           5.67428593e-04     2.31273269e-04     0.00000000e+00    
           5.84535766e-04     2.55034800e-04     0.00000000e+00    
           5.95019024e-04     2.82035151e-04     0.00000000e+00    
           5.98627550e-04     3.10894218e-04     0.00000000e+00    
           5.94455458e-04     3.40147526e-04     0.00000000e+00    
           5.82778128e-04     3.67243250e-04     0.00000000e+00    
           5.64320420e-04     3.90399946e-04     0.00000000e+00    
           2.56378972e-03     4.19057760e-04     0.00000000e+00    
           2.53506703e-03     4.23412712e-04     0.00000000e+00    
           2.50554504e-03     4.21405392e-04     0.00000000e+00    
           2.47719674e-03     4.12301189e-04     0.00000000e+00    
           1.09615130e-03     7.68912316e-04     0.00000000e+00    
           1.12601661e-03     7.83248222e-04     0.00000000e+00    
           1.15113135e-03     8.04933195e-04     0.00000000e+00    
           1.16957689e-03     8.32475082e-04     0.00000000e+00    
           1.18001690e-03     8.64063506e-04     0.00000000e+00    
           1.18191587e-03     8.97270802e-04     0.00000000e+00    
           1.17512804e-03     9.29640955e-04     0.00000000e+00    
           1.15959602e-03     9.59365687e-04     0.00000000e+00    
           1.13620819e-03     9.83472215e-04     0.00000000e+00    
           1.10789854e-03     1.00060995e-03     0.00000000e+00    
           1.07657141e-03     1.00994762e-03     0.00000000e+00    
           1.01150118e-03     1.00479659e-03     0.00000000e+00    
           9.82102705e-04     9.89742577e-04     0.00000000e+00    
           9.57610027e-04     9.67924192e-04     0.00000000e+00    
           9.39221994e-04     9.40708676e-04     0.00000000e+00    
           9.28400725e-04     9.09478869e-04     0.00000000e+00    
           9.26394714e-04     8.76390724e-04     0.00000000e+00    
           9.33541509e-04     8.43535410e-04     0.00000000e+00    
           9.49193898e-04     8.14143044e-04     0.00000000e+00    
           9.72138427e-04     7.90073012e-04     0.00000000e+00    