<?xml version="1.0"?>
<VTKFile type="UnstructuredGrid" version="0.1">
  <UnstructuredGrid>
    <Piece NumberOfPoints="1034" NumberOfCells="1614">
      <Points>
        <DataArray type="Float32" NumberOfComponents="3">
           5.21582007e-01     5.11657000e-01     0.00000000e+00    
           5.07319987e-01     5.11657000e-01     0.00000000e+00    
           4.65243995e-01     5.17907977e-01     0.00000000e+00    
           4.65243995e-01     5.04921973e-01     0.00000000e+00    
           4.75246996e-01     5.11415005e-01     0.00000000e+00    
           5.33852994e-01     5.04921973e-01     0.00000000e+00    
           5.33852994e-01     5.17907977e-01     0.00000000e+00    
           4.83779997e-01     5.34618974e-01     0.00000000e+00    
           4.68984991e-01     5.34618974e-01     0.00000000e+00    
           4.76381987e-01     5.23841977e-01     0.00000000e+00    
           4.68984991e-01     4.66010004e-01     0.00000000e+00    
           4.83779997e-01     4.66010004e-01     0.00000000e+00    
           4.99920011e-01     5.34618974e-01     0.00000000e+00    
           4.89203990e-01     5.34618974e-01     0.00000000e+00    
           4.94562000e-01     5.22280991e-01     0.00000000e+00    
           4.89203990e-01     4.66010004e-01     0.00000000e+00    
           4.99920011e-01     4.66010004e-01     0.00000000e+00    
           5.32517016e-01     4.74112004e-01     0.00000000e+00    
           5.17961025e-01     4.74112004e-01     0.00000000e+00    
           5.33852994e-01     5.19801974e-01     0.00000000e+00    
           5.33852994e-01     5.29603004e-01     0.00000000e+00    
           5.19536972e-01     5.24702013e-01     0.00000000e+00    
           4.65243995e-01     5.29603004e-01     0.00000000e+00    
           4.65243995e-01     5.19801974e-01     0.00000000e+00    
           4.92487997e-01     5.17117977e-01     0.00000000e+00    
           4.76904988e-01     5.17117977e-01     0.00000000e+00    
           5.17996013e-01     5.27033985e-01     0.00000000e+00    
           5.04473984e-01     5.27033985e-01     0.00000000e+00    
           5.08446991e-01     4.83435005e-01     0.00000000e+00    
           4.94414002e-01     4.83435005e-01     0.00000000e+00    
           4.65243995e-01     4.83101994e-01     0.00000000e+00    
           4.65243995e-01     4.74415004e-01     0.00000000e+00    
           4.78336990e-01     4.78758007e-01     0.00000000e+00    
           5.33852994e-01     4.74415004e-01     0.00000000e+00    
           5.33852994e-01     4.83101994e-01     0.00000000e+00    
           4.80668008e-01     4.95810986e-01     0.00000000e+00    
           4.66084987e-01     4.95810986e-01     0.00000000e+00    
           4.93930012e-01     4.79214013e-01     0.00000000e+00    
           4.78967011e-01     4.79214013e-01     0.00000000e+00    
           5.09284973e-01     4.97658014e-01     0.00000000e+00    
           4.95503992e-01     4.97658014e-01     0.00000000e+00    
           5.33011973e-01     5.01751006e-01     0.00000000e+00    
           5.17829001e-01     5.01751006e-01     0.00000000e+00    
           4.95451003e-01     5.00564992e-01     0.00000000e+00    
           4.80922014e-01     5.00564992e-01     0.00000000e+00    
           5.25367022e-01     4.88312006e-01     0.00000000e+00    
           5.09521008e-01     4.88312006e-01     0.00000000e+00    
           4.65243995e-01     5.34618974e-01     0.00000000e+00    
           4.65243995e-01     4.66010004e-01     0.00000000e+00    
           5.33852994e-01     4.66010004e-01     0.00000000e+00    
           5.33852994e-01     5.34618974e-01     0.00000000e+00    
           5.21338999e-01     5.13502657e-01     0.00000000e+00    
           5.20626605e-01     5.15222490e-01     0.00000000e+00    
           5.19493401e-01     5.16699374e-01     0.00000000e+00    
           5.18016517e-01     5.17832637e-01     0.00000000e+00    
           5.16296625e-01     5.18545032e-01     0.00000000e+00    
           5.14451027e-01     5.18787980e-01     0.00000000e+00    
           5.12605369e-01     5.18545032e-01     0.00000000e+00    
           5.10885477e-01     5.17832637e-01     0.00000000e+00    
           5.09408593e-01     5.16699374e-01     0.00000000e+00    
           5.08275390e-01     5.15222490e-01     0.00000000e+00    
           5.07562995e-01     5.13502657e-01     0.00000000e+00    
           5.07562995e-01     5.09811342e-01     0.00000000e+00    
           5.08275390e-01     5.08091509e-01     0.00000000e+00    
           5.09408593e-01     5.06614625e-01     0.00000000e+00    
           5.10885477e-01     5.05481362e-01     0.00000000e+00    
           5.12605369e-01     5.04768968e-01     0.00000000e+00    
           5.14451027e-01     5.04526019e-01     0.00000000e+00    
           5.16296625e-01     5.04768968e-01     0.00000000e+00    
           5.18016517e-01     5.05481362e-01     0.00000000e+00    
           5.19493401e-01     5.06614625e-01     0.00000000e+00    
           5.20626605e-01     5.08091509e-01     0.00000000e+00    
           5.21338999e-01     5.09811342e-01     0.00000000e+00    
           4.66931671e-01     5.04409373e-01     0.00000000e+00    
           4.68693614e-01     5.04328012e-01     0.00000000e+00    
           4.70421344e-01     5.04682958e-01     0.00000000e+00    
           4.72008497e-01     5.05452335e-01     0.00000000e+00    
           4.73357379e-01     5.06588817e-01     0.00000000e+00    
           4.74384934e-01     5.08022368e-01     0.00000000e+00    
           4.75027919e-01     5.09664834e-01     0.00000000e+00    
           4.75028187e-01     5.13165236e-01     0.00000000e+00    
           4.74385172e-01     5.14807761e-01     0.00000000e+00    
           4.73357558e-01     5.16241372e-01     0.00000000e+00    
           4.72008646e-01     5.17377913e-01     0.00000000e+00    
           4.70421433e-01     5.18147290e-01     0.00000000e+00    
           4.68693614e-01     5.18502235e-01     0.00000000e+00    
           4.66931641e-01     5.18420875e-01     0.00000000e+00    
           5.32303810e-01     5.16964078e-01     0.00000000e+00    
           5.31043947e-01     5.15658796e-01     0.00000000e+00    
           5.30155540e-01     5.14077127e-01     0.00000000e+00    
           5.29696345e-01     5.12322068e-01     0.00000000e+00    
           5.29696345e-01     5.10507941e-01     0.00000000e+00    
           5.30155540e-01     5.08752882e-01     0.00000000e+00    
           5.31043947e-01     5.07171214e-01     0.00000000e+00    
           5.32303810e-01     5.05865932e-01     0.00000000e+00    
           4.68517244e-01     5.32760799e-01     0.00000000e+00    
           4.68509018e-01     5.30844629e-01     0.00000000e+00    
           4.68960851e-01     5.28982460e-01     0.00000000e+00    
           4.69846308e-01     5.27283132e-01     0.00000000e+00    
           4.71113682e-01     5.25845945e-01     0.00000000e+00    
           4.72688884e-01     5.24754822e-01     0.00000000e+00    
           4.74479854e-01     5.24073541e-01     0.00000000e+00    
           4.78284091e-01     5.24073601e-01     0.00000000e+00    
           4.80075032e-01     5.24754822e-01     0.00000000e+00    
           4.81650203e-01     5.25845885e-01     0.00000000e+00    
           4.82917547e-01     5.27283013e-01     0.00000000e+00    
           4.83803004e-01     5.28982282e-01     0.00000000e+00    
           4.84254897e-01     5.30844331e-01     0.00000000e+00    
           4.84246761e-01     5.32760441e-01     0.00000000e+00    
           4.82887864e-01     4.67691004e-01     0.00000000e+00    
           4.81620818e-01     4.69110936e-01     0.00000000e+00    
           4.80051905e-01     4.70188022e-01     0.00000000e+00    
           4.78271484e-01     4.70860153e-01     0.00000000e+00    
           4.76382166e-01     4.71088618e-01     0.00000000e+00    
           4.74492878e-01     4.70860243e-01     0.00000000e+00    
           4.72712427e-01     4.70188200e-01     0.00000000e+00    
           4.71143454e-01     4.69111174e-01     0.00000000e+00    
           4.69876349e-01     4.67691302e-01     0.00000000e+00    
           4.88103986e-01     5.33086061e-01     0.00000000e+00    
           4.87431526e-01     5.31323195e-01     0.00000000e+00    
           4.87231195e-01     5.29447019e-01     0.00000000e+00    
           4.87516224e-01     5.27581930e-01     0.00000000e+00    
           4.88267750e-01     5.25851250e-01     0.00000000e+00    
           4.89436030e-01     5.24369657e-01     0.00000000e+00    
           4.90943670e-01     5.23235261e-01     0.00000000e+00    
           4.92690891e-01     5.22523046e-01     0.00000000e+00    
           4.96432930e-01     5.22523701e-01     0.00000000e+00    
           4.98180002e-01     5.23235798e-01     0.00000000e+00    
           4.99687493e-01     5.24370134e-01     0.00000000e+00    
           5.00855684e-01     5.25851607e-01     0.00000000e+00    
           5.01607120e-01     5.27582109e-01     0.00000000e+00    
           5.01892149e-01     5.29447079e-01     0.00000000e+00    
           5.01691818e-01     5.31323016e-01     0.00000000e+00    
           5.01019418e-01     5.33085763e-01     0.00000000e+00    
           4.98371124e-01     4.67269689e-01     0.00000000e+00    
           4.96539861e-01     4.68064904e-01     0.00000000e+00    
           4.94562000e-01     4.68336672e-01     0.00000000e+00    
           4.92584139e-01     4.68064904e-01     0.00000000e+00    
           4.90752876e-01     4.67269689e-01     0.00000000e+00    
           5.32269001e-01     4.75995690e-01     0.00000000e+00    
           5.31541944e-01     4.77750987e-01     0.00000000e+00    
           5.30385315e-01     4.79258329e-01     0.00000000e+00    
           5.28877974e-01     4.80414927e-01     0.00000000e+00    
[...]
      <PointData>
        <DataArray type="Float32" Name="Displacement" NumberOfComponents="3">
           1.86262769e-03     8.31516576e-04     0.00000000e+00    
           1.84310961e-03     9.45235544e-04     0.00000000e+00    
           9.27443558e-04     9.18093661e-04     0.00000000e+00    
           7.87649478e-04     9.00069135e-04     0.00000000e+00    
           8.71632597e-04     8.05389660e-04     0.00000000e+00    
           2.08764942e-03     9.00069135e-04     0.00000000e+00    
           2.22744350e-03     9.18093661e-04     0.00000000e+00    
           1.47561403e-03     1.17049029e-03     0.00000000e+00    
           1.45532563e-03     1.34336005e-03     0.00000000e+00    
           1.33551273e-03     1.24140619e-03     0.00000000e+00    
           1.55325644e-04     4.33600326e-05     0.00000000e+00    
           1.75614085e-04    -1.29509674e-04     0.00000000e+00    
           1.76203612e-03     1.16048334e-03     0.00000000e+00    
           1.74567790e-03     1.24604942e-03     0.00000000e+00    
           1.65043375e-03     1.18724676e-03     0.00000000e+00    
           4.45677870e-04    -5.39506291e-05     0.00000000e+00    
           4.62036114e-04    -1.39516618e-04     0.00000000e+00    
           1.30262866e-03     1.20589291e-04     0.00000000e+00    
           1.28314830e-03     2.46384676e-04     0.00000000e+00    
           2.21804134e-03     1.01966504e-03     0.00000000e+00    
           2.31615431e-03     1.03408424e-03     0.00000000e+00    
           2.24749045e-03     1.16696418e-03     0.00000000e+00    
           1.01615430e-03     1.03408424e-03     0.00000000e+00    
           9.18041333e-04     1.01966504e-03     0.00000000e+00    
           1.28621794e-03     9.01099702e-04     0.00000000e+00    
           1.26567658e-03     1.08561921e-03     0.00000000e+00    
           2.02990510e-03     1.07468339e-03     0.00000000e+00    
           2.01057061e-03     1.17924297e-03     0.00000000e+00    
           1.00806041e-03     3.12864082e-04     0.00000000e+00    
           9.89643624e-04     4.49571584e-04     0.00000000e+00    
           3.60582053e-04     2.84049951e-04     0.00000000e+00    
           2.74438789e-04     2.72624631e-04     0.00000000e+00    
           3.35573597e-04     1.52088673e-04     0.00000000e+00    
           1.57443876e-03     2.72624631e-04     0.00000000e+00    
           1.66058203e-03     2.84049951e-04     0.00000000e+00    
           6.82374695e-04     5.25670883e-04     0.00000000e+00    
           6.62814418e-04     6.73731556e-04     0.00000000e+00    
           5.81505476e-04     1.62919066e-04     0.00000000e+00    
           5.61891939e-04     2.89002608e-04     0.00000000e+00    
           1.24248920e-03     4.71707521e-04     0.00000000e+00    
           1.22275192e-03     6.17857324e-04     0.00000000e+00    
           1.83186657e-03     6.73030212e-04     0.00000000e+00    
           1.81119679e-03     8.10930855e-04     0.00000000e+00    
           1.06858590e-03     6.05134934e-04     0.00000000e+00    
           1.04873662e-03     7.54598354e-04     0.00000000e+00    
           1.35876460e-03     3.44023516e-04     0.00000000e+00    
           1.33686105e-03     4.55724279e-04     0.00000000e+00    
           1.30000000e-03     1.30000000e-03     0.00000000e+00    
           0.00000000e+00     0.00000000e+00     0.00000000e+00    
           1.30000000e-03     0.00000000e+00     0.00000000e+00    
           2.60000001e-03     1.30000000e-03     0.00000000e+00    
           1.87724375e-03     8.36485357e-04     0.00000000e+00    
           1.89059554e-03     8.44267954e-04     0.00000000e+00    
           1.90151029e-03     8.55275488e-04     0.00000000e+00    
           1.90921698e-03     8.68884090e-04     0.00000000e+00    
           1.91299082e-03     8.83827917e-04     0.00000000e+00    
           1.91265508e-03     8.99185077e-04     0.00000000e+00    
           1.90862257e-03     9.13953001e-04     0.00000000e+00    
           1.90041377e-03     9.27198154e-04     0.00000000e+00    
           1.88797771e-03     9.37472505e-04     0.00000000e+00    
           1.87346118e-03     9.43413412e-04     0.00000000e+00    
           1.85830472e-03     9.45985259e-04     0.00000000e+00    
           1.82841078e-03     9.40872415e-04     0.00000000e+00    
           1.81508297e-03     9.33449948e-04     0.00000000e+00    
           1.80400757e-03     9.22778097e-04     0.00000000e+00    
           1.79606501e-03     9.09664668e-04     0.00000000e+00    
           1.79203809e-03     8.94874043e-04     0.00000000e+00    
           1.79245952e-03     8.79393832e-04     0.00000000e+00    
           1.79760798e-03     8.64490343e-04     0.00000000e+00    
           1.80671818e-03     8.51596589e-04     0.00000000e+00    
           1.81803503e-03     8.40947032e-04     0.00000000e+00    
           1.83154584e-03     8.33385799e-04     0.00000000e+00    
           1.84671208e-03     8.30111676e-04     0.00000000e+00    
           7.84375239e-04     8.81048152e-04     0.00000000e+00    
           7.85903248e-04     8.62186018e-04     0.00000000e+00    
           7.91838509e-04     8.44271737e-04     0.00000000e+00    
           8.02716182e-04     8.28371209e-04     0.00000000e+00    
           8.17873050e-04     8.16275249e-04     0.00000000e+00    
           8.35029350e-04     8.08455748e-04     0.00000000e+00    
           8.53149395e-04     8.05063348e-04     0.00000000e+00    
           8.89683783e-04     8.09633406e-04     0.00000000e+00    
           9.06588568e-04     8.17896915e-04     0.00000000e+00    
           9.20912833e-04     8.30160861e-04     0.00000000e+00    
           9.31883755e-04     8.45508883e-04     0.00000000e+00    
           9.38360754e-04     8.63361522e-04     0.00000000e+00    
           9.39760706e-04     8.82599386e-04     0.00000000e+00    
           9.35519522e-04     9.01173626e-04     0.00000000e+00    
           2.21555610e-03     9.33145755e-04     0.00000000e+00    
           2.19985144e-03     9.44530650e-04     0.00000000e+00    
           2.18151649e-03     9.50342568e-04     0.00000000e+00    
           2.16244953e-03     9.52004280e-04     0.00000000e+00    
           2.14379397e-03     9.49310197e-04     0.00000000e+00    
           2.12573796e-03     9.42631857e-04     0.00000000e+00    
           2.10953271e-03     9.32082941e-04     0.00000000e+00    
           2.09651492e-03     9.17625730e-04     0.00000000e+00    
           1.43271021e-03     1.34537532e-03     0.00000000e+00    
           1.41038606e-03     1.34274620e-03     0.00000000e+00    
           1.38890429e-03     1.33545394e-03     0.00000000e+00    
           1.36944395e-03     1.32323417e-03     0.00000000e+00    
           1.35335256e-03     1.30682590e-03     0.00000000e+00    
           1.34185562e-03     1.28694950e-03     0.00000000e+00    
           1.33582717e-03     1.26462406e-03     0.00000000e+00    
           1.34124071e-03     1.21884607e-03     0.00000000e+00    
           1.35171879e-03     1.19858002e-03     0.00000000e+00    
           1.36697176e-03     1.18132308e-03     0.00000000e+00    
           1.38678902e-03     1.16839365e-03     0.00000000e+00    
           1.40907557e-03     1.16155285e-03     0.00000000e+00    
           1.43161602e-03     1.15981128e-03     0.00000000e+00    
           1.45421992e-03     1.16256543e-03     0.00000000e+00    
           1.94545777e-04    -1.16994190e-04     0.00000000e+00    
           2.10094935e-04    -1.00256257e-04     0.00000000e+00    
           2.21026537e-04    -8.03294752e-05     0.00000000e+00    
           2.26722463e-04    -5.81401036e-05     0.00000000e+00    
           2.26928547e-04    -3.55984703e-05     0.00000000e+00    
           2.21942464e-04    -1.36721965e-05     0.00000000e+00    
           2.11818857e-04     6.65158177e-06     0.00000000e+00    
           1.96497640e-04     2.38172779e-05     0.00000000e+00    
           1.76765432e-04     3.61709899e-05     0.00000000e+00    
           1.73150713e-03     1.25158811e-03     0.00000000e+00    
           1.71672949e-03     1.25386787e-03     0.00000000e+00    
           1.70145906e-03     1.25316181e-03     0.00000000e+00    
           1.68672879e-03     1.24871905e-03     0.00000000e+00    
           1.67376501e-03     1.24111492e-03     0.00000000e+00    
           1.66280847e-03     1.23071426e-03     0.00000000e+00    
           1.65478804e-03     1.21776399e-03     0.00000000e+00    
           1.65023201e-03     1.20307959e-03     0.00000000e+00    
           1.65531726e-03     1.17175770e-03     0.00000000e+00    
           1.66477344e-03     1.15849276e-03     0.00000000e+00    
           1.67732651e-03     1.14865368e-03     0.00000000e+00    
           1.69162685e-03     1.14188739e-03     0.00000000e+00    
           1.70659367e-03     1.13837444e-03     0.00000000e+00    
           1.72226701e-03     1.13823882e-03     0.00000000e+00    
           1.73745747e-03     1.14212104e-03     0.00000000e+00    
           1.75093743e-03     1.14965905e-03     0.00000000e+00    
           4.70466330e-04    -1.25524864e-04     0.00000000e+00    
           4.74724657e-04    -1.09652967e-04     0.00000000e+00    
           4.74254135e-04    -9.30623428e-05     0.00000000e+00    
           4.68758808e-04    -7.72435960e-05     0.00000000e+00    
           4.58933675e-04    -6.38801430e-05     0.00000000e+00    
           1.31924555e-03     1.24581959e-04     0.00000000e+00    
           1.33447978e-03     1.32537069e-04     0.00000000e+00    
           1.34720025e-03     1.44508158e-04     0.00000000e+00    
           1.35575770e-03     1.59742034e-04     0.00000000e+00    
           1.35961419e-03     1.76829257e-04     0.00000000e+00    
           1.35865540e-03     1.94375039e-04     0.00000000e+00    
           1.35350216e-03     2.10559767e-04     0.00000000e+00    
           1.34478603e-03     2.25134063e-04     0.00000000e+00    
           1.33266090e-03     2.37085507e-04     0.00000000e+00    
           1.31702819e-03     2.44805560e-04     0.00000000e+00    
           1.29997102e-03     2.47794494e-04     0.00000000e+00    
           1.26684632e-03     2.41643167e-04     0.00000000e+00    
           1.25222839e-03     2.33042345e-04     0.00000000e+00    
           1.24004239e-03     2.21165144e-04     0.00000000e+00    
           1.23127841e-03     2.06688565e-04     0.00000000e+00    
           1.22660236e-03     1.90494000e-04     0.00000000e+00    
           1.22624438e-03     1.73540087e-04     0.00000000e+00    
           1.23061298e-03     1.56834096e-04     0.00000000e+00    
           1.24007673e-03     1.41835000e-04     0.00000000e+00    
           1.25365972e-03     1.30570566e-04     0.00000000e+00    
           1.26929185e-03     1.23632068e-04     0.00000000e+00    
           1.28587091e-03     1.20318458e-04     0.00000000e+00    
           2.32891738e-03     1.04927889e-03     0.00000000e+00    
           2.33751372e-03     1.06723700e-03     0.00000000e+00    
           2.34136428e-03     1.08684122e-03     0.00000000e+00    
           2.33991444e-03     1.10653916e-03     0.00000000e+00    
           2.33330973e-03     1.12541078e-03     0.00000000e+00    
           2.32116622e-03     1.14208728e-03     0.00000000e+00    
           2.30509578e-03     1.15418085e-03     0.00000000e+00    
           2.28697038e-03     1.16238557e-03     0.00000000e+00    
           2.26761168e-03     1.16682507e-03     0.00000000e+00    
           2.22796341e-03     1.16224529e-03     0.00000000e+00    
           2.21027760e-03     1.15310936e-03     0.00000000e+00    
           2.19542440e-03     1.13986235e-03     0.00000000e+00    
           2.18429486e-03     1.12337887e-03     0.00000000e+00    
           2.17751297e-03     1.10460736e-03     0.00000000e+00    
           2.17631669e-03     1.08449697e-03     0.00000000e+00    
           2.18043872e-03     1.06465397e-03     0.00000000e+00    
           2.18933821e-03     1.04662229e-03     0.00000000e+00    
           2.20187521e-03     1.03128923e-03     0.00000000e+00    
           9.34692216e-04     1.01364788e-03     0.00000000e+00    
           9.51905444e-04     1.01134530e-03     0.00000000e+00    
           9.69036540e-04     1.01210596e-03     0.00000000e+00    
           9.85900289e-04     1.01630623e-03     0.00000000e+00    
           1.00196945e-03     1.02347473e-03     0.00000000e+00    
           1.30837492e-03     9.06342815e-04     0.00000000e+00    
           1.32873561e-03     9.16419842e-04     0.00000000e+00    
           1.34646974e-03     9.30586131e-04     0.00000000e+00    
           1.36053842e-03     9.48655885e-04     0.00000000e+00    
           1.36963930e-03     9.69776011e-04     0.00000000e+00    
           1.37288542e-03     9.93000460e-04     0.00000000e+00    
           1.37003721e-03     1.01587072e-03     0.00000000e+00    
           1.36212574e-03     1.03744026e-03     0.00000000e+00    
           1.34932343e-03     1.05637254e-03     0.00000000e+00    
           1.33199722e-03     1.07174285e-03     0.00000000e+00    
           1.31062930e-03     1.08170544e-03     0.00000000e+00    
           1.28836441e-03     1.08575146e-03     0.00000000e+00    
           1.24352402e-03     1.08036073e-03     0.00000000e+00    
           1.22272864e-03     1.07050326e-03     0.00000000e+00    
           1.20485201e-03     1.05583831e-03     0.00000000e+00    
           1.19112106e-03     1.03724468e-03     0.00000000e+00    
           1.18251762e-03     1.01593498e-03     0.00000000e+00    
           1.17955264e-03     9.93226189e-04     0.00000000e+00    
           1.18167012e-03     9.70620604e-04     0.00000000e+00    
           1.18923269e-03     9.49130685e-04     0.00000000e+00    
           1.20239239e-03     9.30059585e-04     0.00000000e+00    
           1.22031884e-03     9.15209763e-04     0.00000000e+00    
           1.24129280e-03     9.05528723e-04     0.00000000e+00    
           1.26360008e-03     9.00946092e-04     0.00000000e+00    
           2.04482418e-03     1.07902230e-03     0.00000000e+00    
           2.05771578e-03     1.08720793e-03     0.00000000e+00    
           2.06779595e-03     1.09874911e-03     0.00000000e+00    
           2.07442441e-03     1.11254479e-03     0.00000000e+00    
           2.07657390e-03     1.12776866e-03     0.00000000e+00    
           2.07414920e-03     1.14325178e-03     0.00000000e+00    
           2.06669676e-03     1.15748635e-03     0.00000000e+00    
           2.05510971e-03     1.16848666e-03     0.00000000e+00    
           2.04109936e-03     1.17580721e-03     0.00000000e+00    
           2.02610693e-03     1.17932225e-03     0.00000000e+00    
           1.99553464e-03     1.17485388e-03     0.00000000e+00    
           1.98249426e-03     1.16626720e-03     0.00000000e+00    
           1.97258522e-03     1.15431671e-03     0.00000000e+00    
           1.96663616e-03     1.13978214e-03     0.00000000e+00    
           1.96509575e-03     1.12459227e-03     0.00000000e+00    
           1.96751812e-03     1.10953173e-03     0.00000000e+00    
           1.97437475e-03     1.09554757e-03     0.00000000e+00    
           1.98606937e-03     1.08460477e-03     0.00000000e+00    
           1.99960382e-03     1.07800157e-03     0.00000000e+00    
           2.01440253e-03     1.07455312e-03     0.00000000e+00    
           1.02631561e-03     3.17225145e-04     0.00000000e+00    
           1.04287243e-03     3.26172507e-04     0.00000000e+00    
           1.05632737e-03     3.39368853e-04     0.00000000e+00    
           1.06541393e-03     3.55336233e-04     0.00000000e+00    
           1.07046368e-03     3.72884795e-04     0.00000000e+00    
           1.07113749e-03     3.91201000e-04     0.00000000e+00    
           1.06675935e-03     4.09069209e-04     0.00000000e+00    
           1.05695648e-03     4.25541395e-04     0.00000000e+00    
           1.04227313e-03     4.37586452e-04     0.00000000e+00    
           1.02569454e-03     4.45334386e-04     0.00000000e+00    
           1.00783701e-03     4.49392071e-04     0.00000000e+00    
           9.71256057e-04     4.45665384e-04     0.00000000e+00    
           9.54496558e-04     4.37022245e-04     0.00000000e+00    
           9.40598140e-04     4.24453377e-04     0.00000000e+00    
           9.30559065e-04     4.08701424e-04     0.00000000e+00    
           9.25145345e-04     3.90805712e-04     0.00000000e+00    
           9.24772292e-04     3.71960545e-04     0.00000000e+00    
           9.29911854e-04     3.53730167e-04     0.00000000e+00    
           9.40147380e-04     3.37427191e-04     0.00000000e+00    
           9.54752904e-04     3.25207599e-04     0.00000000e+00    
           9.71577363e-04     3.16952151e-04     0.00000000e+00    
           9.89562017e-04     3.12989607e-04     0.00000000e+00    
           2.62837100e-04     2.58654385e-04     0.00000000e+00    
           2.55221938e-04     2.41906033e-04     0.00000000e+00    
           2.52375467e-04     2.23855299e-04     0.00000000e+00    
           2.54058978e-04     2.06036959e-04     0.00000000e+00    
           2.59885215e-04     1.89143335e-04     0.00000000e+00    
           2.69816781e-04     1.74147819e-04     0.00000000e+00    
           2.84229201e-04     1.62433193e-04     0.00000000e+00    
           3.00587941e-04     1.56011229e-04     0.00000000e+00    
           3.17628845e-04     1.52349021e-04     0.00000000e+00    
           3.53282696e-04     1.56289228e-04     0.00000000e+00    
           3.69363319e-04     1.64707875e-04     0.00000000e+00    
           3.82659433e-04     1.76956964e-04     0.00000000e+00    
           3.92552582e-04     1.92027597e-04     0.00000000e+00    
           3.98348493e-04     2.08759462e-04     0.00000000e+00    
           4.00032150e-04     2.26481890e-04     0.00000000e+00    
           3.96807241e-04     2.44335504e-04     0.00000000e+00    
           3.88705608e-04     2.60764413e-04     0.00000000e+00    
           3.76093056e-04     2.74393737e-04     0.00000000e+00    
           1.64332520e-03     2.89498596e-04     0.00000000e+00    
           1.62548071e-03     2.91212229e-04     0.00000000e+00    
           1.60722376e-03     2.89431395e-04     0.00000000e+00    
           1.58981082e-03     2.83326255e-04     0.00000000e+00    
           7.02060584e-04     5.29920449e-04     0.00000000e+00    
           7.20052398e-04     5.39135770e-04     0.00000000e+00    
           7.34990812e-04     5.52785990e-04     0.00000000e+00    
           7.45666912e-04     5.69931639e-04     0.00000000e+00    
           7.51202577e-04     5.89522067e-04     0.00000000e+00    
           7.51393731e-04     6.09895797e-04     0.00000000e+00    
           7.46278849e-04     6.29362534e-04     0.00000000e+00    
           7.35729875e-04     6.47020119e-04     0.00000000e+00    
           7.20185111e-04     6.60713878e-04     0.00000000e+00    
           7.02068035e-04     6.69791829e-04     0.00000000e+00    
           6.82689250e-04     6.73988310e-04     0.00000000e+00    
           6.43671141e-04     6.68572669e-04     0.00000000e+00    
           6.26371650e-04     6.58611476e-04     0.00000000e+00    
           6.12040458e-04     6.44927612e-04     0.00000000e+00    
           6.01436070e-04     6.28177135e-04     0.00000000e+00    
           5.95444348e-04     6.09163777e-04     0.00000000e+00    
           5.94840269e-04     5.89221367e-04     0.00000000e+00    
           5.99764113e-04     5.69519470e-04     0.00000000e+00    
           6.10306626e-04     5.52067533e-04     0.00000000e+00    
           6.25428162e-04     5.38473192e-04     0.00000000e+00    