<?xml version="1.0"?>
<VTKFile type="UnstructuredGrid" version="0.1">
  <UnstructuredGrid>
    <Piece NumberOfPoints="1034" NumberOfCells="1614">
      <Points>
        <DataArray type="Float32" NumberOfComponents="3">
           5.21582007e-01     5.11657000e-01     0.00000000e+00    
           5.07319987e-01     5.11657000e-01     0.00000000e+00    
           4.65243995e-01     5.17907977e-01     0.00000000e+00    
           4.65243995e-01     5.04921973e-01     0.00000000e+00    
           4.75246996e-01     5.11415005e-01     0.00000000e+00    
           5.33852994e-01     5.04921973e-01     0.00000000e+00    
           5.33852994e-01     5.17907977e-01     0.00000000e+00    
           4.83779997e-01     5.34618974e-01     0.00000000e+00    
           4.68984991e-01     5.34618974e-01     0.00000000e+00    
           4.76381987e-01     5.23841977e-01     0.00000000e+00    
           4.68984991e-01     4.66010004e-01     0.00000000e+00    
           4.83779997e-01     4.66010004e-01     0.00000000e+00    
           4.99920011e-01     5.34618974e-01     0.00000000e+00    
           4.89203990e-01     5.34618974e-01     0.00000000e+00    
           4.94562000e-01     5.22280991e-01     0.00000000e+00    
           4.89203990e-01     4.66010004e-01     0.00000000e+00    
           4.99920011e-01     4.66010004e-01     0.00000000e+00    
           5.32517016e-01     4.74112004e-01     0.00000000e+00    
           5.17961025e-01     4.74112004e-01     0.00000000e+00    
           5.33852994e-01     5.19801974e-01     0.00000000e+00    
           5.33852994e-01     5.29603004e-01     0.00000000e+00    
           5.19536972e-01     5.24702013e-01     0.00000000e+00    
           4.65243995e-01     5.29603004e-01     0.00000000e+00    
           4.65243995e-01     5.19801974e-01     0.00000000e+00    
           4.92487997e-01     5.17117977e-01     0.00000000e+00    
           4.76904988e-01     5.17117977e-01     0.00000000e+00    
           5.17996013e-01     5.27033985e-01     0.00000000e+00    
           5.04473984e-01     5.27033985e-01     0.00000000e+00    
           5.08446991e-01     4.83435005e-01     0.00000000e+00    
           4.94414002e-01     4.83435005e-01     0.00000000e+00    
           4.65243995e-01     4.83101994e-01     0.00000000e+00    
           4.65243995e-01     4.74415004e-01     0.00000000e+00    
           4.78336990e-01     4.78758007e-01     0.00000000e+00    
           5.33852994e-01     4.74415004e-01     0.00000000e+00    
           5.33852994e-01     4.83101994e-01     0.00000000e+00    
           4.80668008e-01     4.95810986e-01     0.00000000e+00    
           4.66084987e-01     4.95810986e-01     0.00000000e+00    
           4.93930012e-01     4.79214013e-01     0.00000000e+00    
           4.78967011e-01     4.79214013e-01     0.00000000e+00    
           5.09284973e-01     4.97658014e-01     0.00000000e+00    
           4.95503992e-01     4.97658014e-01     0.00000000e+00    
           5.33011973e-01     5.01751006e-01     0.00000000e+00    
           5.17829001e-01     5.01751006e-01     0.00000000e+00    
           4.95451003e-01     5.00564992e-01     0.00000000e+00    
           4.80922014e-01     5.00564992e-01     0.00000000e+00    
           5.25367022e-01     4.88312006e-01     0.00000000e+00    
           5.09521008e-01     4.88312006e-01     0.00000000e+00    
           4.65243995e-01     5.34618974e-01     0.00000000e+00    
           4.65243995e-01     4.66010004e-01     0.00000000e+00    
           5.33852994e-01     4.66010004e-01     0.00000000e+00    
           5.33852994e-01     5.34618974e-01     0.00000000e+00    
           5.21338999e-01     5.13502657e-01     0.00000000e+00    
           5.20626605e-01     5.15222490e-01     0.00000000e+00    
           5.19493401e-01     5.16699374e-01     0.00000000e+00    
           5.18016517e-01     5.17832637e-01     0.00000000e+00    
           5.16296625e-01     5.18545032e-01     0.00000000e+00    
           5.14451027e-01     5.18787980e-01     0.00000000e+00    
           5.12605369e-01     5.18545032e-01     0.00000000e+00    
           5.10885477e-01     5.17832637e-01     0.00000000e+00    
           5.09408593e-01     5.16699374e-01     0.00000000e+00    
           5.08275390e-01     5.15222490e-01     0.00000000e+00    
           5.07562995e-01     5.13502657e-01     0.00000000e+00    
           5.07562995e-01     5.09811342e-01     0.00000000e+00    
           5.08275390e-01     5.08091509e-01     0.00000000e+00    
           5.09408593e-01     5.06614625e-01     0.00000000e+00    
           5.10885477e-01     5.05481362e-01     0.00000000e+00    
           5.12605369e-01     5.04768968e-01     0.00000000e+00    
           5.14451027e-01     5.04526019e-01     0.00000000e+00    
           5.16296625e-01     5.04768968e-01     0.00000000e+00    
           5.18016517e-01     5.05481362e-01     0.00000000e+00    
           5.19493401e-01     5.06614625e-01     0.00000000e+00    
           5.20626605e-01     5.08091509e-01     0.00000000e+00    
           5.21338999e-01     5.09811342e-01     0.00000000e+00    
           4.66931671e-01     5.04409373e-01     0.00000000e+00    
           4.68693614e-01     5.04328012e-01     0.00000000e+00    
           4.70421344e-01     5.04682958e-01     0.00000000e+00    
           4.72008497e-01     5.05452335e-01     0.00000000e+00    
           4.73357379e-01     5.06588817e-01     0.00000000e+00    
           4.74384934e-01     5.08022368e-01     0.00000000e+00    
           4.75027919e-01     5.09664834e-01     0.00000000e+00    
           4.75028187e-01     5.13165236e-01     0.00000000e+00    
           4.74385172e-01     5.14807761e-01     0.00000000e+00    
           4.73357558e-01     5.16241372e-01     0.00000000e+00    
           4.72008646e-01     5.17377913e-01     0.00000000e+00    
           4.70421433e-01     5.18147290e-01     0.00000000e+00    
           4.68693614e-01     5.18502235e-01     0.00000000e+00    
           4.66931641e-01     5.18420875e-01     0.00000000e+00    
           5.32303810e-01     5.16964078e-01     0.00000000e+00    
           5.31043947e-01     5.15658796e-01     0.00000000e+00    
           5.30155540e-01     5.14077127e-01     0.00000000e+00    
           5.29696345e-01     5.12322068e-01     0.00000000e+00    
           5.29696345e-01     5.10507941e-01     0.00000000e+00    
           5.30155540e-01     5.08752882e-01     0.00000000e+00    
           5.31043947e-01     5.07171214e-01     0.00000000e+00    
           5.32303810e-01     5.05865932e-01     0.00000000e+00    
           4.68517244e-01     5.32760799e-01     0.00000000e+00    
           4.68509018e-01     5.30844629e-01     0.00000000e+00    
           4.68960851e-01     5.28982460e-01     0.00000000e+00    
           4.69846308e-01     5.27283132e-01     0.00000000e+00    
           4.71113682e-01     5.25845945e-01     0.00000000e+00    
           4.72688884e-01     5.24754822e-01     0.00000000e+00    
           4.74479854e-01     5.24073541e-01     0.00000000e+00    
           4.78284091e-01     5.24073601e-01     0.00000000e+00    
           4.80075032e-01     5.24754822e-01     0.00000000e+00    
           4.81650203e-01     5.25845885e-01     0.00000000e+00    
           4.82917547e-01     5.27283013e-01     0.00000000e+00    
           4.83803004e-01     5.28982282e-01     0.00000000e+00    
           4.84254897e-01     5.30844331e-01     0.00000000e+00    
           4.84246761e-01     5.32760441e-01     0.00000000e+00    
           4.82887864e-01     4.67691004e-01     0.00000000e+00    
           4.81620818e-01     4.69110936e-01     0.00000000e+00    
           4.80051905e-01     4.70188022e-01     0.00000000e+00    
           4.78271484e-01     4.70860153e-01     0.00000000e+00    
           4.76382166e-01     4.71088618e-01     0.00000000e+00    
           4.74492878e-01     4.70860243e-01     0.00000000e+00    
           4.72712427e-01     4.70188200e-01     0.00000000e+00    
           4.71143454e-01     4.69111174e-01     0.00000000e+00    
           4.69876349e-01     4.67691302e-01     0.00000000e+00    
           4.88103986e-01     5.33086061e-01     0.00000000e+00    
           4.87431526e-01     5.31323195e-01     0.00000000e+00    
           4.87231195e-01     5.29447019e-01     0.00000000e+00    
           4.87516224e-01     5.27581930e-01     0.00000000e+00    
           4.88267750e-01     5.25851250e-01     0.00000000e+00    
           4.89436030e-01     5.24369657e-01     0.00000000e+00    
           4.90943670e-01     5.23235261e-01     0.00000000e+00    
           4.92690891e-01     5.22523046e-01     0.00000000e+00    
           4.96432930e-01     5.22523701e-01     0.00000000e+00    
           4.98180002e-01     5.23235798e-01     0.00000000e+00    
           4.99687493e-01     5.24370134e-01     0.00000000e+00    
           5.00855684e-01     5.25851607e-01     0.00000000e+00    
           5.01607120e-01     5.27582109e-01     0.00000000e+00    
           5.01892149e-01     5.29447079e-01     0.00000000e+00    
           5.01691818e-01     5.31323016e-01     0.00000000e+00    
           5.01019418e-01     5.33085763e-01     0.00000000e+00    
           4.98371124e-01     4.67269689e-01     0.00000000e+00    
           4.96539861e-01     4.68064904e-01     0.00000000e+00    
           4.94562000e-01     4.68336672e-01     0.00000000e+00    
           4.92584139e-01     4.68064904e-01     0.00000000e+00    
           4.90752876e-01     4.67269689e-01     0.00000000e+00    
           5.32269001e-01     4.75995690e-01     0.00000000e+00    
           5.31541944e-01     4.77750987e-01     0.00000000e+00    
           5.30385315e-01     4.79258329e-01     0.00000000e+00    
           5.28877974e-01     4.80414927e-01     0.00000000e+00    
[...]
      <PointData>
        <DataArray type="Float32" Name="Displacement" NumberOfComponents="3">
           3.79159428e-06     6.12838849e-05     0.00000000e+00    
           3.63970730e-06     6.67873173e-05     0.00000000e+00    
           2.05171915e-07     6.82587051e-05     0.00000000e+00    
           1.44090870e-06     6.35441102e-05     0.00000000e+00    
           7.58326905e-07     6.68727880e-05     0.00000000e+00    
           1.44090870e-06     6.35441102e-05     0.00000000e+00    
           2.05171915e-07     6.82587051e-05     0.00000000e+00    
           4.01601210e-06     9.78831740e-05     0.00000000e+00    
           3.73560897e-06     1.00295780e-04     0.00000000e+00    
           2.37843938e-06     9.60203251e-05     0.00000000e+00    
           3.73560897e-06     2.95779586e-07     0.00000000e+00    
           4.01601210e-06    -2.11682368e-06     0.00000000e+00    
           3.05197568e-06     9.31752002e-05     0.00000000e+00    
           2.71202612e-06     9.39352030e-05     0.00000000e+00    
           1.90926676e-06     9.08674701e-05     0.00000000e+00    
           2.71202612e-06    -6.06479944e-06     0.00000000e+00    
           3.05197568e-06    -6.82479777e-06     0.00000000e+00    
           3.07432219e-06     1.38341629e-05     0.00000000e+00    
           2.99783028e-06     1.91143736e-05     0.00000000e+00    
           4.13818725e-06     8.16673855e-05     0.00000000e+00    
           3.95961752e-06     8.56080587e-05     0.00000000e+00    
           4.52975655e-06     8.42102891e-05     0.00000000e+00    
           3.95961752e-06     8.56080587e-05     0.00000000e+00    
           4.13818725e-06     8.16673855e-05     0.00000000e+00    
           1.91658137e-06     8.00554481e-05     0.00000000e+00    
           1.78357732e-06     7.97105095e-05     0.00000000e+00    
           4.77526646e-06     8.37743646e-05     0.00000000e+00    
           4.99314956e-06     8.50363867e-05     0.00000000e+00    
           4.21081904e-06     3.65493506e-05     0.00000000e+00    
           3.83402949e-06     3.09118768e-05     0.00000000e+00    
           5.17552053e-06     1.85314984e-05     0.00000000e+00    
           4.84468273e-06     1.65897382e-05     0.00000000e+00    
           4.67541304e-06     1.72489963e-05     0.00000000e+00    
           4.84468273e-06     1.65897382e-05     0.00000000e+00    
           5.17552053e-06     1.85314984e-05     0.00000000e+00    
           2.12007353e-06     4.81494790e-05     0.00000000e+00    
           2.56370117e-06     4.52881795e-05     0.00000000e+00    
           4.95260065e-06     2.39345482e-05     0.00000000e+00    
           4.90155344e-06     1.77438578e-05     0.00000000e+00    
           2.33967376e-06     4.28650674e-05     0.00000000e+00    
           1.63733762e-06     4.68056896e-05     0.00000000e+00    
           2.39250858e-06     5.73446960e-05     0.00000000e+00    
           1.91952540e-06     5.24572715e-05     0.00000000e+00    
           1.79138397e-06     5.18533707e-05     0.00000000e+00    
           1.45923593e-06     5.62600108e-05     0.00000000e+00    
           7.53280665e-06     4.00021636e-05     0.00000000e+00    
           7.31086675e-06     3.76520657e-05     0.00000000e+00    
           0.00000000e+00     9.99999975e-05     0.00000000e+00    
           0.00000000e+00     0.00000000e+00     0.00000000e+00    
           0.00000000e+00     0.00000000e+00     0.00000000e+00    
           0.00000000e+00     9.99999975e-05     0.00000000e+00    
           4.44287934e-06     6.21675936e-05     0.00000000e+00    
           5.09086067e-06     6.30254581e-05     0.00000000e+00    
           5.58712736e-06     6.39116261e-05     0.00000000e+00    
           5.89382307e-06     6.47333218e-05     0.00000000e+00    
           6.02294858e-06     6.57344281e-05     0.00000000e+00    
           5.97841563e-06     6.67893473e-05     0.00000000e+00    
           5.85470343e-06     6.74907860e-05     0.00000000e+00    
           5.64905258e-06     6.76654890e-05     0.00000000e+00    
           5.31639535e-06     6.75778647e-05     0.00000000e+00    
           4.83334134e-06     6.73869945e-05     0.00000000e+00    
           4.27649184e-06     6.71529924e-05     0.00000000e+00    
           2.96543612e-06     6.62424427e-05     0.00000000e+00    
           2.32822686e-06     6.56249031e-05     0.00000000e+00    
           1.75953699e-06     6.49483918e-05     0.00000000e+00    
           1.29579064e-06     6.42817322e-05     0.00000000e+00    
           9.84233679e-07     6.35398246e-05     0.00000000e+00    
           8.32078968e-07     6.26900000e-05     0.00000000e+00    
           8.94397544e-07     6.16604084e-05     0.00000000e+00    
           1.25759198e-06     6.03917542e-05     0.00000000e+00    
           1.93746496e-06     5.91897042e-05     0.00000000e+00    
           2.43354702e-06     5.96451973e-05     0.00000000e+00    
           3.05783374e-06     6.04784873e-05     0.00000000e+00    
           1.65839037e-06     6.36457262e-05     0.00000000e+00    
           1.71926285e-06     6.36363038e-05     0.00000000e+00    
           1.68376607e-06     6.37476114e-05     0.00000000e+00    
           1.57753834e-06     6.42277155e-05     0.00000000e+00    
           1.42422141e-06     6.50000220e-05     0.00000000e+00    
           1.23648545e-06     6.57063210e-05     0.00000000e+00    
           9.95025744e-07     6.63746105e-05     0.00000000e+00    
           5.16139266e-07     6.72300957e-05     0.00000000e+00    
           3.28441246e-07     6.73966715e-05     0.00000000e+00    
           2.26224060e-07     6.75362389e-05     0.00000000e+00    
           2.20781800e-07     6.76142663e-05     0.00000000e+00    
           2.46734373e-07     6.76698983e-05     0.00000000e+00    
           2.74920552e-07     6.77122589e-05     0.00000000e+00    
           2.46405534e-07     6.79096338e-05     0.00000000e+00    
           9.32887687e-08     6.81857855e-05     0.00000000e+00    
           8.79085817e-08     6.74984331e-05     0.00000000e+00    
           1.75823402e-07     6.64113104e-05     0.00000000e+00    
           2.73282524e-07     6.54850737e-05     0.00000000e+00    
           3.91449618e-07     6.45588443e-05     0.00000000e+00    
           4.31701750e-07     6.36738332e-05     0.00000000e+00    
           5.37331573e-07     6.28546550e-05     0.00000000e+00    
           1.01925514e-06     6.30346185e-05     0.00000000e+00    
           3.54835674e-06     9.97224342e-05     0.00000000e+00    
           3.42629892e-06     9.91787383e-05     0.00000000e+00    
           3.31049455e-06     9.86993182e-05     0.00000000e+00    
           3.12423936e-06     9.82363490e-05     0.00000000e+00    
           2.84976727e-06     9.77396921e-05     0.00000000e+00    
           2.58447585e-06     9.72215203e-05     0.00000000e+00    
           2.39899327e-06     9.66640218e-05     0.00000000e+00    
           2.59583771e-06     9.52277333e-05     0.00000000e+00    
           2.83635245e-06     9.47496665e-05     0.00000000e+00    
           2.91508172e-06     9.48938687e-05     0.00000000e+00    
           2.93579933e-06     9.54296920e-05     0.00000000e+00    
           2.98229588e-06     9.60590696e-05     0.00000000e+00    
           3.18655975e-06     9.66298830e-05     0.00000000e+00    
           3.55737711e-06     9.71805130e-05     0.00000000e+00    
           4.45318665e-06    -1.38833877e-06     0.00000000e+00    
           4.77130789e-06    -6.55863346e-07     0.00000000e+00    
           4.92294112e-06    -2.91055091e-08     0.00000000e+00    
           4.88367414e-06     5.59756018e-07     0.00000000e+00    
           4.71155818e-06     1.33045319e-06     0.00000000e+00    
           4.47013690e-06     2.01475814e-06     0.00000000e+00    
           4.28982094e-06     2.02541673e-06     0.00000000e+00    
           4.10252915e-06     1.50384653e-06     0.00000000e+00    
           3.90725427e-06     8.62721890e-07     0.00000000e+00    
           2.61684568e-06     9.35074422e-05     0.00000000e+00    
           2.49638197e-06     9.30178212e-05     0.00000000e+00    
           2.28085992e-06     9.24782435e-05     0.00000000e+00    
           1.93539677e-06     9.17860671e-05     0.00000000e+00    
           1.65191500e-06     9.10267117e-05     0.00000000e+00    
           1.47648154e-06     9.03703258e-05     0.00000000e+00    
           1.54270731e-06     9.02192041e-05     0.00000000e+00    
           1.75500259e-06     9.05442357e-05     0.00000000e+00    
           1.96092674e-06     9.10395393e-05     0.00000000e+00    
           1.98477414e-06     9.11464740e-05     0.00000000e+00    
           2.03607692e-06     9.12570904e-05     0.00000000e+00    
           2.11264251e-06     9.13852346e-05     0.00000000e+00    
           2.26120119e-06     9.15246637e-05     0.00000000e+00    
           2.48489232e-06     9.17562575e-05     0.00000000e+00    
           2.73128217e-06     9.21605606e-05     0.00000000e+00    
           2.91624042e-06     9.26377106e-05     0.00000000e+00    
           3.10479436e-06    -6.35697506e-06     0.00000000e+00    
           3.09100551e-06    -5.99613986e-06     0.00000000e+00    
           3.02038075e-06    -5.77704168e-06     0.00000000e+00    
           2.90034495e-06    -5.67785673e-06     0.00000000e+00    
           2.79197980e-06    -5.76455022e-06     0.00000000e+00    
           3.66524887e-06     1.42725103e-05     0.00000000e+00    
           4.12634517e-06     1.46688371e-05     0.00000000e+00    
           4.61767013e-06     1.52978828e-05     0.00000000e+00    
           5.11360895e-06     1.62188353e-05     0.00000000e+00    
           5.43913666e-06     1.74103789e-05     0.00000000e+00    
           5.47624768e-06     1.87747009e-05     0.00000000e+00    
           5.40146948e-06     2.04090356e-05     0.00000000e+00    
           5.02255216e-06     2.12975065e-05     0.00000000e+00    
           4.60127740e-06     2.12460491e-05     0.00000000e+00    
           4.11371138e-06     2.06146469e-05     0.00000000e+00    
           3.54442955e-06     1.99050901e-05     0.00000000e+00    
           2.39073029e-06     1.83059292e-05     0.00000000e+00    
           1.86730358e-06     1.73833141e-05     0.00000000e+00    
           1.43805187e-06     1.64171306e-05     0.00000000e+00    
           1.14363900e-06     1.53787605e-05     0.00000000e+00    
           9.79602532e-07     1.42667313e-05     0.00000000e+00    
           9.47500894e-07     1.32391588e-05     0.00000000e+00    
           1.03370985e-06     1.26743334e-05     0.00000000e+00    
           1.17222737e-06     1.25864672e-05     0.00000000e+00    
           1.53070948e-06     1.27974990e-05     0.00000000e+00    
           1.96237420e-06     1.30852914e-05     0.00000000e+00    
           2.48913261e-06     1.34083630e-05     0.00000000e+00    
           3.94157041e-06     8.61248991e-05     0.00000000e+00    
           3.90132391e-06     8.67096969e-05     0.00000000e+00    
           3.80326424e-06     8.73129175e-05     0.00000000e+00    
           3.80087590e-06     8.76418635e-05     0.00000000e+00    
           3.94252038e-06     8.74425095e-05     0.00000000e+00    
           4.01868147e-06     8.68417628e-05     0.00000000e+00    
           4.16020612e-06     8.59897264e-05     0.00000000e+00    
           4.37608878e-06     8.52434896e-05     0.00000000e+00    
           4.55924601e-06     8.46563562e-05     0.00000000e+00    
           4.30678847e-06     8.37380794e-05     0.00000000e+00    
           4.04260800e-06     8.32943406e-05     0.00000000e+00    
           3.89069282e-06     8.28838165e-05     0.00000000e+00    
           3.81151085e-06     8.26566466e-05     0.00000000e+00    
           3.74686329e-06     8.24731324e-05     0.00000000e+00    
           3.68712267e-06     8.22153597e-05     0.00000000e+00    
           3.72569752e-06     8.18028275e-05     0.00000000e+00    
           3.82153758e-06     8.11276841e-05     0.00000000e+00    
           4.02607657e-06     8.10574638e-05     0.00000000e+00    
           4.21224695e-06     8.25408279e-05     0.00000000e+00    
           4.19781782e-06     8.33398808e-05     0.00000000e+00    
           4.14311944e-06     8.40408902e-05     0.00000000e+00    
           4.04506227e-06     8.46985859e-05     0.00000000e+00    
           3.97439771e-06     8.51698060e-05     0.00000000e+00    
           1.93820279e-06     8.07022589e-05     0.00000000e+00    
           2.02627211e-06     8.14238156e-05     0.00000000e+00    
           2.14621491e-06     8.20695714e-05     0.00000000e+00    
           2.14894408e-06     8.24131785e-05     0.00000000e+00    
           1.96038468e-06     8.23223600e-05     0.00000000e+00    
           1.74554179e-06     8.21842550e-05     0.00000000e+00    
           1.63425921e-06     8.24434392e-05     0.00000000e+00    
           1.41166697e-06     8.28040720e-05     0.00000000e+00    
           1.32033676e-06     8.27089170e-05     0.00000000e+00    
           1.38552048e-06     8.21009817e-05     0.00000000e+00    
           1.45635363e-06     8.12571088e-05     0.00000000e+00    
           1.61693913e-06     8.03580770e-05     0.00000000e+00    
           1.93065284e-06     7.91488055e-05     0.00000000e+00    
           2.09631526e-06     7.87927274e-05     0.00000000e+00    
           2.17830029e-06     7.84869189e-05     0.00000000e+00    
           2.21125401e-06     7.81061171e-05     0.00000000e+00    
           2.26629231e-06     7.76611341e-05     0.00000000e+00    
           2.36005076e-06     7.70881743e-05     0.00000000e+00    
           2.42056603e-06     7.66873127e-05     0.00000000e+00    
           2.33789751e-06     7.68180398e-05     0.00000000e+00    
           2.23152961e-06     7.74196596e-05     0.00000000e+00    
           2.13560611e-06     7.81816561e-05     0.00000000e+00    
           2.02480260e-06     7.88600300e-05     0.00000000e+00    
           1.96556380e-06     7.94638909e-05     0.00000000e+00    
           5.03203228e-06     8.42238805e-05     0.00000000e+00    
           5.32797003e-06     8.47078481e-05     0.00000000e+00    
           5.48106527e-06     8.51380319e-05     0.00000000e+00    
           5.49959577e-06     8.54354439e-05     0.00000000e+00    
           5.47909031e-06     8.56517654e-05     0.00000000e+00    
           5.42359157e-06     8.57817140e-05     0.00000000e+00    
           5.36699645e-06     8.58036510e-05     0.00000000e+00    
           5.31385604e-06     8.57113700e-05     0.00000000e+00    
           5.23931567e-06     8.55402686e-05     0.00000000e+00    
           5.13532996e-06     8.53055317e-05     0.00000000e+00    
           4.82165387e-06     8.46384282e-05     0.00000000e+00    
           4.67274685e-06     8.41411311e-05     0.00000000e+00    
           4.58183240e-06     8.35442843e-05     0.00000000e+00    
           4.59425019e-06     8.28340198e-05     0.00000000e+00    
           4.64382856e-06     8.20848873e-05     0.00000000e+00    
           4.76919149e-06     8.15216481e-05     0.00000000e+00    
           4.81571124e-06     8.15563399e-05     0.00000000e+00    
           4.79150276e-06     8.20729838e-05     0.00000000e+00    
           4.73022101e-06     8.27668409e-05     0.00000000e+00    
           4.67633299e-06     8.33172671e-05     0.00000000e+00    
           3.68380620e-06     3.67883404e-05     0.00000000e+00    
           3.06582410e-06     3.68834953e-05     0.00000000e+00    
           2.49005416e-06     3.69077934e-05     0.00000000e+00    
           2.00384034e-06     3.70121343e-05     0.00000000e+00    
           1.64125106e-06     3.72553659e-05     0.00000000e+00    
           1.30280466e-06     3.70602684e-05     0.00000000e+00    
           1.22148163e-06     3.58409270e-05     0.00000000e+00    
           1.36371284e-06     3.44451837e-05     0.00000000e+00    
           1.73294723e-06     3.32929740e-05     0.00000000e+00    
           2.29905345e-06     3.23091590e-05     0.00000000e+00    
           3.02727290e-06     3.15020698e-05     0.00000000e+00    
           4.59768717e-06     3.06945767e-05     0.00000000e+00    
           5.29778208e-06     3.07604751e-05     0.00000000e+00    
           5.85160524e-06     3.10181276e-05     0.00000000e+00    
           6.18761169e-06     3.13583587e-05     0.00000000e+00    
           6.38944812e-06     3.18412640e-05     0.00000000e+00    
           6.44863076e-06     3.24829925e-05     0.00000000e+00    
           6.37403355e-06     3.32021773e-05     0.00000000e+00    
           6.16697753e-06     3.39810213e-05     0.00000000e+00    
           5.82343409e-06     3.47896894e-05     0.00000000e+00    
           5.35690924e-06     3.55179473e-05     0.00000000e+00    
           4.81180632e-06     3.61284183e-05     0.00000000e+00    
           4.86316458e-06     1.62624565e-05     0.00000000e+00    
           4.84868133e-06     1.57905324e-05     0.00000000e+00    
           4.91795936e-06     1.52528128e-05     0.00000000e+00    
           5.07306777e-06     1.46225557e-05     0.00000000e+00    
           5.21732045e-06     1.42981635e-05     0.00000000e+00    
           5.26967324e-06     1.45995919e-05     0.00000000e+00    
           5.24279631e-06     1.53517085e-05     0.00000000e+00    
           5.08853054e-06     1.62285196e-05     0.00000000e+00    
           4.86677936e-06     1.68335519e-05     0.00000000e+00    
           4.63191873e-06     1.76558169e-05     0.00000000e+00    
           4.77236381e-06     1.81916166e-05     0.00000000e+00    
           4.95755239e-06     1.89007369e-05     0.00000000e+00    
           5.04785157e-06     1.96196233e-05     0.00000000e+00    
           5.16294131e-06     2.01735438e-05     0.00000000e+00    
           5.21137599e-06     2.03165637e-05     0.00000000e+00    
           5.23884319e-06     2.00073537e-05     0.00000000e+00    
           5.21169841e-06     1.94936420e-05     0.00000000e+00    
           5.19885589e-06     1.89978600e-05     0.00000000e+00    
           5.19442392e-06     1.80451043e-05     0.00000000e+00    
           5.16913269e-06     1.76016983e-05     0.00000000e+00    
           5.05936623e-06     1.71740594e-05     0.00000000e+00    
           4.89283684e-06     1.68663810e-05     0.00000000e+00    
           1.65648578e-06     4.86109930e-05     0.00000000e+00    
           1.28908141e-06     4.86705576e-05     0.00000000e+00    
           1.07069275e-06     4.85895689e-05     0.00000000e+00    
           9.84668304e-07     4.85550845e-05     0.00000000e+00    
           8.78742867e-07     4.85693417e-05     0.00000000e+00    
           8.12986457e-07     4.85705605e-05     0.00000000e+00    
           8.57431985e-07     4.84890952e-05     0.00000000e+00    
           1.06967309e-06     4.79957380e-05     0.00000000e+00    
           1.43820967e-06     4.71914173e-05     0.00000000e+00    
           1.83580823e-06     4.64754630e-05     0.00000000e+00    
           2.22231029e-06     4.58495088e-05     0.00000000e+00    
           2.86471754e-06     4.47717575e-05     0.00000000e+00    
           3.14237968e-06     4.42079290e-05     0.00000000e+00    
           3.37357710e-06     4.36877708e-05     0.00000000e+00    
           3.53089672e-06     4.32381566e-05     0.00000000e+00    
           3.65431720e-06     4.29906468e-05     0.00000000e+00    
           3.67862572e-06     4.32469751e-05     0.00000000e+00    
           3.67041821e-06     4.39808173e-05     0.00000000e+00    
           3.64549101e-06     4.48708779e-05     0.00000000e+00    
           3.46498473e-06     4.57486894e-05     0.00000000e+00    