<?xml version="1.0"?>
<VTKFile type="UnstructuredGrid" version="0.1">
  <UnstructuredGrid>
    <Piece NumberOfPoints="1034" NumberOfCells="1614">
      <Points>
        <DataArray type="Float32" NumberOfComponents="3">
           5.21582007e-01     5.11657000e-01     0.00000000e+00    
           5.07319987e-01     5.11657000e-01     0.00000000e+00    
           4.65243995e-01     5.17907977e-01     0.00000000e+00    
           4.65243995e-01     5.04921973e-01     0.00000000e+00    
           4.75246996e-01     5.11415005e-01     0.00000000e+00    
           5.33852994e-01     5.04921973e-01     0.00000000e+00    
           5.33852994e-01     5.17907977e-01     0.00000000e+00    
           4.83779997e-01     5.34618974e-01     0.00000000e+00    
           4.68984991e-01     5.34618974e-01     0.00000000e+00    
           4.76381987e-01     5.23841977e-01     0.00000000e+00    
           4.68984991e-01     4.66010004e-01     0.00000000e+00    
           4.83779997e-01     4.66010004e-01     0.00000000e+00    
           4.99920011e-01     5.34618974e-01     0.00000000e+00    
           4.89203990e-01     5.34618974e-01     0.00000000e+00    
           4.94562000e-01     5.22280991e-01     0.00000000e+00    
           4.89203990e-01     4.66010004e-01     0.00000000e+00    
           4.99920011e-01     4.66010004e-01     0.00000000e+00    
           5.32517016e-01     4.74112004e-01     0.00000000e+00    
           5.17961025e-01     4.74112004e-01     0.00000000e+00    
           5.33852994e-01     5.19801974e-01     0.00000000e+00    
           5.33852994e-01     5.29603004e-01     0.00000000e+00    
           5.19536972e-01     5.24702013e-01     0.00000000e+00    
           4.65243995e-01     5.29603004e-01     0.00000000e+00    
           4.65243995e-01     5.19801974e-01     0.00000000e+00    
           4.92487997e-01     5.17117977e-01     0.00000000e+00    
           4.76904988e-01     5.17117977e-01     0.00000000e+00    
           5.17996013e-01     5.27033985e-01     0.00000000e+00    
           5.04473984e-01     5.27033985e-01     0.00000000e+00    
           5.08446991e-01     4.83435005e-01     0.00000000e+00    
           4.94414002e-01     4.83435005e-01     0.00000000e+00    
           4.65243995e-01     4.83101994e-01     0.00000000e+00    
           4.65243995e-01     4.74415004e-01     0.00000000e+00    
           4.78336990e-01     4.78758007e-01     0.00000000e+00    
           5.33852994e-01     4.74415004e-01     0.00000000e+00    
           5.33852994e-01     4.83101994e-01     0.00000000e+00    
           4.80668008e-01     4.95810986e-01     0.00000000e+00    
           4.66084987e-01     4.95810986e-01     0.00000000e+00    
           4.93930012e-01     4.79214013e-01     0.00000000e+00    
           4.78967011e-01     4.79214013e-01     0.00000000e+00    
           5.09284973e-01     4.97658014e-01     0.00000000e+00    
           4.95503992e-01     4.97658014e-01     0.00000000e+00    
           5.33011973e-01     5.01751006e-01     0.00000000e+00    
           5.17829001e-01     5.01751006e-01     0.00000000e+00    
           4.95451003e-01     5.00564992e-01     0.00000000e+00    
           4.80922014e-01     5.00564992e-01     0.00000000e+00    
           5.25367022e-01     4.88312006e-01     0.00000000e+00    
           5.09521008e-01     4.88312006e-01     0.00000000e+00    
           4.65243995e-01     5.34618974e-01     0.00000000e+00    
           4.65243995e-01     4.66010004e-01     0.00000000e+00    
           5.33852994e-01     4.66010004e-01     0.00000000e+00    
           5.33852994e-01     5.34618974e-01     0.00000000e+00    
           5.21338999e-01     5.13502657e-01     0.00000000e+00    
           5.20626605e-01     5.15222490e-01     0.00000000e+00    
           5.19493401e-01     5.16699374e-01     0.00000000e+00    
           5.18016517e-01     5.17832637e-01     0.00000000e+00    
           5.16296625e-01     5.18545032e-01     0.00000000e+00    
           5.14451027e-01     5.18787980e-01     0.00000000e+00    
           5.12605369e-01     5.18545032e-01     0.00000000e+00    
           5.10885477e-01     5.17832637e-01     0.00000000e+00    
           5.09408593e-01     5.16699374e-01     0.00000000e+00    
           5.08275390e-01     5.15222490e-01     0.00000000e+00    
           5.07562995e-01     5.13502657e-01     0.00000000e+00    
           5.07562995e-01     5.09811342e-01     0.00000000e+00    
           5.08275390e-01     5.08091509e-01     0.00000000e+00    
           5.09408593e-01     5.06614625e-01     0.00000000e+00    
           5.10885477e-01     5.05481362e-01     0.00000000e+00    
           5.12605369e-01     5.04768968e-01     0.00000000e+00    
           5.14451027e-01     5.04526019e-01     0.00000000e+00    
           5.16296625e-01     5.04768968e-01     0.00000000e+00    
           5.18016517e-01     5.05481362e-01     0.00000000e+00    
           5.19493401e-01     5.06614625e-01     0.00000000e+00    
           5.20626605e-01     5.08091509e-01     0.00000000e+00    
           5.21338999e-01     5.09811342e-01     0.00000000e+00    
           4.66931671e-01     5.04409373e-01     0.00000000e+00    
           4.68693614e-01     5.04328012e-01     0.00000000e+00    
           4.70421344e-01     5.04682958e-01     0.00000000e+00    
           4.72008497e-01     5.05452335e-01     0.00000000e+00    
           4.73357379e-01     5.06588817e-01     0.00000000e+00    
           4.74384934e-01     5.08022368e-01     0.00000000e+00    
           4.75027919e-01     5.09664834e-01     0.00000000e+00    
           4.75028187e-01     5.13165236e-01     0.00000000e+00    
           4.74385172e-01     5.14807761e-01     0.00000000e+00    
           4.73357558e-01     5.16241372e-01     0.00000000e+00    
           4.72008646e-01     5.17377913e-01     0.00000000e+00    
           4.70421433e-01     5.18147290e-01     0.00000000e+00    
           4.68693614e-01     5.18502235e-01     0.00000000e+00    
           4.66931641e-01     5.18420875e-01     0.00000000e+00    
           5.32303810e-01     5.16964078e-01     0.00000000e+00    
           5.31043947e-01     5.15658796e-01     0.00000000e+00    
           5.30155540e-01     5.14077127e-01     0.00000000e+00    
           5.29696345e-01     5.12322068e-01     0.00000000e+00    
           5.29696345e-01     5.10507941e-01     0.00000000e+00    
           5.30155540e-01     5.08752882e-01     0.00000000e+00    
           5.31043947e-01     5.07171214e-01     0.00000000e+00    
           5.32303810e-01     5.05865932e-01     0.00000000e+00    
           4.68517244e-01     5.32760799e-01     0.00000000e+00    
           4.68509018e-01     5.30844629e-01     0.00000000e+00    
           4.68960851e-01     5.28982460e-01     0.00000000e+00    
           4.69846308e-01     5.27283132e-01     0.00000000e+00    
           4.71113682e-01     5.25845945e-01     0.00000000e+00    
           4.72688884e-01     5.24754822e-01     0.00000000e+00    
           4.74479854e-01     5.24073541e-01     0.00000000e+00    
           4.78284091e-01     5.24073601e-01     0.00000000e+00    
           4.80075032e-01     5.24754822e-01     0.00000000e+00    
           4.81650203e-01     5.25845885e-01     0.00000000e+00    
           4.82917547e-01     5.27283013e-01     0.00000000e+00    
           4.83803004e-01     5.28982282e-01     0.00000000e+00    
           4.84254897e-01     5.30844331e-01     0.00000000e+00    
           4.84246761e-01     5.32760441e-01     0.00000000e+00    
           4.82887864e-01     4.67691004e-01     0.00000000e+00    
           4.81620818e-01     4.69110936e-01     0.00000000e+00    
           4.80051905e-01     4.70188022e-01     0.00000000e+00    
           4.78271484e-01     4.70860153e-01     0.00000000e+00    
           4.76382166e-01     4.71088618e-01     0.00000000e+00    
           4.74492878e-01     4.70860243e-01     0.00000000e+00    
           4.72712427e-01     4.70188200e-01     0.00000000e+00    
           4.71143454e-01     4.69111174e-01     0.00000000e+00    
           4.69876349e-01     4.67691302e-01     0.00000000e+00    
           4.88103986e-01     5.33086061e-01     0.00000000e+00    
           4.87431526e-01     5.31323195e-01     0.00000000e+00    
           4.87231195e-01     5.29447019e-01     0.00000000e+00    
           4.87516224e-01     5.27581930e-01     0.00000000e+00    
           4.88267750e-01     5.25851250e-01     0.00000000e+00    
           4.89436030e-01     5.24369657e-01     0.00000000e+00    
           4.90943670e-01     5.23235261e-01     0.00000000e+00    
           4.92690891e-01     5.22523046e-01     0.00000000e+00    
           4.96432930e-01     5.22523701e-01     0.00000000e+00    
           4.98180002e-01     5.23235798e-01     0.00000000e+00    
           4.99687493e-01     5.24370134e-01     0.00000000e+00    
           5.00855684e-01     5.25851607e-01     0.00000000e+00    
           5.01607120e-01     5.27582109e-01     0.00000000e+00    
           5.01892149e-01     5.29447079e-01     0.00000000e+00    
           5.01691818e-01     5.31323016e-01     0.00000000e+00    
           5.01019418e-01     5.33085763e-01     0.00000000e+00    
           4.98371124e-01     4.67269689e-01     0.00000000e+00    
           4.96539861e-01     4.68064904e-01     0.00000000e+00    
           4.94562000e-01     4.68336672e-01     0.00000000e+00    
           4.92584139e-01     4.68064904e-01     0.00000000e+00    
           4.90752876e-01     4.67269689e-01     0.00000000e+00    
           5.32269001e-01     4.75995690e-01     0.00000000e+00    
           5.31541944e-01     4.77750987e-01     0.00000000e+00    
           5.30385315e-01     4.79258329e-01     0.00000000e+00    
           5.28877974e-01     4.80414927e-01     0.00000000e+00    
[...]
      <PointData>
        <DataArray type="Float32" Name="Displacement" NumberOfComponents="3">
           7.22588084e-05     1.09154929e-03     0.00000000e+00    
           6.33852469e-05     1.10447500e-03     0.00000000e+00    
           2.40994523e-05     1.10169861e-03     0.00000000e+00    
           6.60747610e-05     1.07981556e-03     0.00000000e+00    
           5.22774935e-05     1.12510414e-03     0.00000000e+00    
           6.60747610e-05     1.07981556e-03     0.00000000e+00    
           2.40994523e-05     1.10169861e-03     0.00000000e+00    
           4.56199887e-05     1.62339606e-03     0.00000000e+00    
           3.77186734e-05     1.59666303e-03     0.00000000e+00    
           6.24469467e-05     1.59123319e-03     0.00000000e+00    
           3.77186734e-05    -5.33369748e-05     0.00000000e+00    
           4.56199887e-05    -2.66038896e-05     0.00000000e+00    
           5.43299138e-05     1.54370302e-03     0.00000000e+00    
           5.08082012e-05     1.56902405e-03     0.00000000e+00    
           2.18625064e-05     1.53494615e-03     0.00000000e+00    
           5.08082012e-05    -8.09759076e-05     0.00000000e+00    
           5.43299138e-05    -1.06296939e-04     0.00000000e+00    
           4.14757378e-05     2.36828942e-04     0.00000000e+00    
           3.33882526e-05     2.20978094e-04     0.00000000e+00    
           8.01812930e-05     1.39191025e-03     0.00000000e+00    
           6.75882475e-05     1.41041772e-03     0.00000000e+00    
           6.97204450e-05     1.38820172e-03     0.00000000e+00    
           6.75882475e-05     1.41041772e-03     0.00000000e+00    
           8.01812930e-05     1.39191025e-03     0.00000000e+00    
           5.47638447e-05     1.30927691e-03     0.00000000e+00    
           4.62243734e-05     1.25321257e-03     0.00000000e+00    
           6.72598617e-05     1.43122068e-03     0.00000000e+00    
           6.37716294e-05     1.47507049e-03     0.00000000e+00    
           6.02229265e-05     5.37119107e-04     0.00000000e+00    
           5.28198980e-05     4.61665419e-04     0.00000000e+00    
           3.20465006e-05     2.84729642e-04     0.00000000e+00    
           5.57214626e-05     2.69625481e-04     0.00000000e+00    
           4.82580726e-05     3.14034492e-04     0.00000000e+00    
           5.57214626e-05     2.69625481e-04     0.00000000e+00    
           3.20465006e-05     2.84729642e-04     0.00000000e+00    
           4.26704792e-05     7.87610712e-04     0.00000000e+00    
           3.61819111e-05     8.13431747e-04     0.00000000e+00    
           6.17692058e-05     4.01056255e-04     0.00000000e+00    
           5.53945174e-05     3.21252388e-04     0.00000000e+00    
           7.23882913e-05     7.32206623e-04     0.00000000e+00    
           6.39174323e-05     7.77034904e-04     0.00000000e+00    
           5.16316250e-05     9.41958395e-04     0.00000000e+00    
           4.17131305e-05     9.69117624e-04     0.00000000e+00    
           6.26788096e-05     8.01312039e-04     0.00000000e+00    
           5.53658610e-05     8.35137675e-04     0.00000000e+00    
           8.95271733e-05     5.92953467e-04     0.00000000e+00    
           7.94326043e-05     5.94715937e-04     0.00000000e+00    
           0.00000000e+00     1.64999999e-03     0.00000000e+00    
           0.00000000e+00     0.00000000e+00     0.00000000e+00    
           0.00000000e+00     0.00000000e+00     0.00000000e+00    
           0.00000000e+00     1.64999999e-03     0.00000000e+00    
           7.33609413e-05     1.09676854e-03     0.00000000e+00    
           7.43688724e-05     1.10026996e-03     0.00000000e+00    
           7.48604944e-05     1.10360805e-03     0.00000000e+00    
           7.48107486e-05     1.10642973e-03     0.00000000e+00    
           7.43958808e-05     1.10865198e-03     0.00000000e+00    
           7.35227222e-05     1.11041288e-03     0.00000000e+00    
           7.25499267e-05     1.11160730e-03     0.00000000e+00    
           7.14396010e-05     1.11216423e-03     0.00000000e+00    
           7.01087774e-05     1.11210055e-03     0.00000000e+00    
           6.76918353e-05     1.11072580e-03     0.00000000e+00    
           6.53611132e-05     1.10814627e-03     0.00000000e+00    
           6.20437422e-05     1.10016100e-03     0.00000000e+00    
           6.13941374e-05     1.09685399e-03     0.00000000e+00    
           6.07217407e-05     1.09405257e-03     0.00000000e+00    
           6.00773892e-05     1.09174952e-03     0.00000000e+00    
           5.99023515e-05     1.08956266e-03     0.00000000e+00    
           6.02622240e-05     1.08769618e-03     0.00000000e+00    
           6.16804391e-05     1.08597847e-03     0.00000000e+00    
           6.34273019e-05     1.08489697e-03     0.00000000e+00    
           6.57267155e-05     1.08494714e-03     0.00000000e+00    
           6.74777475e-05     1.08567427e-03     0.00000000e+00    
           6.95860654e-05     1.08765287e-03     0.00000000e+00    
           6.94830378e-05     1.08464004e-03     0.00000000e+00    
           7.11344765e-05     1.09058863e-03     0.00000000e+00    
           7.08984662e-05     1.09690859e-03     0.00000000e+00    
           6.91204186e-05     1.10326509e-03     0.00000000e+00    
           6.63247993e-05     1.10939459e-03     0.00000000e+00    
           6.28020425e-05     1.11499359e-03     0.00000000e+00    
           5.81950917e-05     1.12070469e-03     0.00000000e+00    
           4.52464919e-05     1.12801488e-03     0.00000000e+00    
           3.86002066e-05     1.12821406e-03     0.00000000e+00    
           3.28704700e-05     1.12676376e-03     0.00000000e+00    
           2.85263050e-05     1.12351263e-03     0.00000000e+00    
           2.54845381e-05     1.11909362e-03     0.00000000e+00    
           2.36382657e-05     1.11382036e-03     0.00000000e+00    
           2.31185149e-05     1.10790681e-03     0.00000000e+00    
           2.66999068e-05     1.09538727e-03     0.00000000e+00    
           3.08363778e-05     1.08966138e-03     0.00000000e+00    
           3.55676202e-05     1.08409335e-03     0.00000000e+00    
           4.05960200e-05     1.07913045e-03     0.00000000e+00    
           4.67783357e-05     1.07460760e-03     0.00000000e+00    
           5.27959601e-05     1.07286347e-03     0.00000000e+00    
           5.75932609e-05     1.07386638e-03     0.00000000e+00    
           6.20491264e-05     1.07620098e-03     0.00000000e+00    
           4.02905571e-05     1.59149431e-03     0.00000000e+00    
           4.46495142e-05     1.58684817e-03     0.00000000e+00    
           5.02045186e-05     1.58398761e-03     0.00000000e+00    
           5.46665251e-05     1.58318994e-03     0.00000000e+00    
           5.78029467e-05     1.58397050e-03     0.00000000e+00    
           6.00118656e-05     1.58572895e-03     0.00000000e+00    
           6.15157769e-05     1.58806785e-03     0.00000000e+00    
           6.27177433e-05     1.59495242e-03     0.00000000e+00    
           6.19158673e-05     1.59924268e-03     0.00000000e+00    
           5.97678736e-05     1.60354038e-03     0.00000000e+00    
           5.62630667e-05     1.60730281e-03     0.00000000e+00    
           5.27250995e-05     1.61159365e-03     0.00000000e+00    
           5.01600080e-05     1.61616458e-03     0.00000000e+00    
           4.80912968e-05     1.62002689e-03     0.00000000e+00    
           4.27896994e-05    -2.51962501e-05     0.00000000e+00    
           3.98455159e-05    -2.51880629e-05     0.00000000e+00    
           3.72810682e-05    -2.64119426e-05     0.00000000e+00    
           3.49410693e-05    -2.85407878e-05     0.00000000e+00    
           3.32419804e-05    -3.17726081e-05     0.00000000e+00    
           3.24257817e-05    -3.56249002e-05     0.00000000e+00    
           3.27932066e-05    -3.99452947e-05     0.00000000e+00    
           3.42181411e-05    -4.44050129e-05     0.00000000e+00    
           3.57419485e-05    -4.88681217e-05     0.00000000e+00    
           4.71043277e-05     1.56922010e-03     0.00000000e+00    
           4.28550775e-05     1.56733009e-03     0.00000000e+00    
           3.79382218e-05     1.56397792e-03     0.00000000e+00    
           3.23111308e-05     1.55882200e-03     0.00000000e+00    
           2.77677755e-05     1.55438355e-03     0.00000000e+00    
           2.39983456e-05     1.54973636e-03     0.00000000e+00    
           2.17679772e-05     1.54458976e-03     0.00000000e+00    
           2.11018778e-05     1.53945968e-03     0.00000000e+00    
           2.36453325e-05     1.53122912e-03     0.00000000e+00    
           2.61675286e-05     1.52843341e-03     0.00000000e+00    
           2.93111189e-05     1.52677635e-03     0.00000000e+00    
           3.30037728e-05     1.52631558e-03     0.00000000e+00    
           3.75169329e-05     1.52722024e-03     0.00000000e+00    
           4.25552535e-05     1.52942922e-03     0.00000000e+00    
           4.75561319e-05     1.53351831e-03     0.00000000e+00    
           5.14215317e-05     1.53837621e-03     0.00000000e+00    
           5.64422298e-05    -1.00899946e-04     0.00000000e+00    
           5.75405065e-05    -9.55107243e-05     0.00000000e+00    
           5.73965444e-05    -9.04948392e-05     0.00000000e+00    
           5.60551671e-05    -8.62317465e-05     0.00000000e+00    
           5.37331252e-05    -8.29450364e-05     0.00000000e+00    
           3.87639884e-05     2.39556990e-04     0.00000000e+00    
           3.56871860e-05     2.40529684e-04     0.00000000e+00    
           3.29616705e-05     2.41522910e-04     0.00000000e+00    
           3.12616612e-05     2.41743095e-04     0.00000000e+00    
           2.99891726e-05     2.41307906e-04     0.00000000e+00    
           2.89073396e-05     2.39815607e-04     0.00000000e+00    
           2.85413444e-05     2.37844608e-04     0.00000000e+00    
           2.86968443e-05     2.35234227e-04     0.00000000e+00    
           2.97604674e-05     2.32404214e-04     0.00000000e+00    
           3.11816693e-05     2.29406462e-04     0.00000000e+00    
           3.19419196e-05     2.25825148e-04     0.00000000e+00    
           3.52654242e-05     2.17351568e-04     0.00000000e+00    
           3.81127065e-05     2.14271175e-04     0.00000000e+00    
           4.07741318e-05     2.13305262e-04     0.00000000e+00    
           4.26627885e-05     2.13477964e-04     0.00000000e+00    
           4.40940494e-05     2.14566433e-04     0.00000000e+00    
           4.50806911e-05     2.16322383e-04     0.00000000e+00    
           4.54736910e-05     2.18549394e-04     0.00000000e+00    
           4.52536915e-05     2.21368653e-04     0.00000000e+00    
           4.50967273e-05     2.24376679e-04     0.00000000e+00    
           4.47944149e-05     2.28082368e-04     0.00000000e+00    
           4.36957744e-05     2.32267834e-04     0.00000000e+00    
           6.59059151e-05     1.41038303e-03     0.00000000e+00    
           6.48249406e-05     1.40988443e-03     0.00000000e+00    
           6.40406724e-05     1.40864041e-03     0.00000000e+00    
           6.39374921e-05     1.40672142e-03     0.00000000e+00    
           6.44971224e-05     1.40429009e-03     0.00000000e+00    
           6.53848329e-05     1.40166248e-03     0.00000000e+00    
           6.65249245e-05     1.39851926e-03     0.00000000e+00    
           6.82137397e-05     1.39497651e-03     0.00000000e+00    
           6.95554263e-05     1.39165542e-03     0.00000000e+00    
           6.97962460e-05     1.38422812e-03     0.00000000e+00    
           7.06242863e-05     1.38106744e-03     0.00000000e+00    
           7.28656742e-05     1.37901912e-03     0.00000000e+00    
           7.52556734e-05     1.37838861e-03     0.00000000e+00    
           7.73880311e-05     1.37883297e-03     0.00000000e+00    
           7.93681102e-05     1.38017884e-03     0.00000000e+00    
           8.08159530e-05     1.38239493e-03     0.00000000e+00    
           8.12999788e-05     1.38502440e-03     0.00000000e+00    
           8.11285136e-05     1.38830545e-03     0.00000000e+00    
           7.92877909e-05     1.39540317e-03     0.00000000e+00    
           7.81669514e-05     1.39943603e-03     0.00000000e+00    
           7.63778808e-05     1.40371337e-03     0.00000000e+00    
           7.32028930e-05     1.40755926e-03     0.00000000e+00    
           6.99423472e-05     1.40961155e-03     0.00000000e+00    
           4.82182040e-05     1.31275482e-03     0.00000000e+00    
           4.14276365e-05     1.31389592e-03     0.00000000e+00    
           3.60078120e-05     1.31212885e-03     0.00000000e+00    
           3.12896627e-05     1.30889250e-03     0.00000000e+00    
           2.72561865e-05     1.30434893e-03     0.00000000e+00    
           2.42318201e-05     1.29855645e-03     0.00000000e+00    
           2.27891105e-05     1.29174069e-03     0.00000000e+00    
           2.31228551e-05     1.28446834e-03     0.00000000e+00    
           2.53292619e-05     1.27715361e-03     0.00000000e+00    
           2.94749407e-05     1.27046648e-03     0.00000000e+00    
           3.42641470e-05     1.26412557e-03     0.00000000e+00    
           3.97688273e-05     1.25779840e-03     0.00000000e+00    
           5.36066618e-05     1.25013420e-03     0.00000000e+00    
           6.10533243e-05     1.24964537e-03     0.00000000e+00    
           6.75446790e-05     1.25129707e-03     0.00000000e+00    
           7.26868384e-05     1.25494553e-03     0.00000000e+00    
           7.62548298e-05     1.25984394e-03     0.00000000e+00    
           7.84546137e-05     1.26582186e-03     0.00000000e+00    
           7.90812410e-05     1.27261830e-03     0.00000000e+00    
           7.77641690e-05     1.27968681e-03     0.00000000e+00    
           7.48977327e-05     1.28669874e-03     0.00000000e+00    
           7.07062063e-05     1.29313034e-03     0.00000000e+00    
           6.58225836e-05     1.29908917e-03     0.00000000e+00    
           6.06102949e-05     1.30453648e-03     0.00000000e+00    
           7.40022879e-05     1.43601815e-03     0.00000000e+00    
           8.00546186e-05     1.44209363e-03     0.00000000e+00    
           8.42498630e-05     1.44863699e-03     0.00000000e+00    
           8.66582850e-05     1.45522878e-03     0.00000000e+00    
           8.73008539e-05     1.46172068e-03     0.00000000e+00    
           8.62121306e-05     1.46766449e-03     0.00000000e+00    
           8.37680636e-05     1.47257338e-03     0.00000000e+00    
           8.01495044e-05     1.47604861e-03     0.00000000e+00    
           7.54023058e-05     1.47765316e-03     0.00000000e+00    
           6.98382792e-05     1.47721660e-03     0.00000000e+00    
           5.77876635e-05     1.47050968e-03     0.00000000e+00    
           5.30728212e-05     1.46478601e-03     0.00000000e+00    
           4.95747045e-05     1.45840540e-03     0.00000000e+00    
           4.74695335e-05     1.45176274e-03     0.00000000e+00    
           4.62182943e-05     1.44521659e-03     0.00000000e+00    
           4.65949161e-05     1.43919233e-03     0.00000000e+00    
           4.84021257e-05     1.43399707e-03     0.00000000e+00    
           5.16287400e-05     1.43013429e-03     0.00000000e+00    
           5.60999215e-05     1.42860576e-03     0.00000000e+00    
           6.12115255e-05     1.42872089e-03     0.00000000e+00    
           5.12619190e-05     5.39142580e-04     0.00000000e+00    
           4.21555233e-05     5.38211025e-04     0.00000000e+00    
           3.38664104e-05     5.34774212e-04     0.00000000e+00    
           2.74699960e-05     5.28798148e-04     0.00000000e+00    
           2.32085276e-05     5.20838134e-04     0.00000000e+00    
           2.12018440e-05     5.11644466e-04     0.00000000e+00    
           2.16222106e-05     5.01833681e-04     0.00000000e+00    
           2.45003921e-05     4.92147286e-04     0.00000000e+00    
           2.87843268e-05     4.82904114e-04     0.00000000e+00    
           3.50742012e-05     4.74298635e-04     0.00000000e+00    
           4.31465669e-05     4.66934318e-04     0.00000000e+00    
           6.28009730e-05     4.60196985e-04     0.00000000e+00    
           7.22433906e-05     4.61752439e-04     0.00000000e+00    
           8.06443204e-05     4.65817866e-04     0.00000000e+00    
           8.67528870e-05     4.71978332e-04     0.00000000e+00    
           9.08481234e-05     4.79918206e-04     0.00000000e+00    
           9.25161003e-05     4.89153608e-04     0.00000000e+00    
           9.18227961e-05     4.98851587e-04     0.00000000e+00    
           8.87424176e-05     5.08407829e-04     0.00000000e+00    
           8.38683045e-05     5.17378212e-04     0.00000000e+00    
           7.75139415e-05     5.25243697e-04     0.00000000e+00    
           6.97063515e-05     5.32033271e-04     0.00000000e+00    
           6.04125889e-05     2.71103170e-04     0.00000000e+00    
           6.39628634e-05     2.73528596e-04     0.00000000e+00    
           6.63949322e-05     2.77487416e-04     0.00000000e+00    
           6.75329647e-05     2.82465102e-04     0.00000000e+00    
           6.73352770e-05     2.87891802e-04     0.00000000e+00    
           6.56912453e-05     2.93640711e-04     0.00000000e+00    
           6.30228096e-05     2.99330044e-04     0.00000000e+00    
           5.91624739e-05     3.05555935e-04     0.00000000e+00    
           5.40159890e-05     3.10758565e-04     0.00000000e+00    
           4.27604937e-05     3.15760990e-04     0.00000000e+00    
           3.79989833e-05     3.16834019e-04     0.00000000e+00    
           3.40082515e-05     3.16666352e-04     0.00000000e+00    
           3.03567631e-05     3.14448931e-04     0.00000000e+00    
           2.80656313e-05     3.10921489e-04     0.00000000e+00    
           2.66592615e-05     3.06404836e-04     0.00000000e+00    
           2.63739748e-05     3.01201071e-04     0.00000000e+00    
           2.73580245e-05     2.95672973e-04     0.00000000e+00    
           2.94870933e-05     2.90025957e-04     0.00000000e+00    
           3.55019802e-05     2.79326137e-04     0.00000000e+00    
           4.01565812e-05     2.74161546e-04     0.00000000e+00    
           4.56085654e-05     2.70335528e-04     0.00000000e+00    
           5.05782045e-05     2.69295328e-04     0.00000000e+00    
           4.47816310e-05     7.91609869e-04     0.00000000e+00    
           4.69473744e-05     7.94995052e-04     0.00000000e+00    
           4.89745289e-05     7.98918016e-04     0.00000000e+00    
           5.09150013e-05     8.03391333e-04     0.00000000e+00    
           5.17324406e-05     8.07769713e-04     0.00000000e+00    
           5.16386426e-05     8.11542035e-04     0.00000000e+00    
           5.07325421e-05     8.14598403e-04     0.00000000e+00    
           4.93755251e-05     8.16904299e-04     0.00000000e+00    
           4.74875960e-05     8.18304135e-04     0.00000000e+00    
           4.44632315e-05     8.18467699e-04     0.00000000e+00    
           4.04270177e-05     8.16817628e-04     0.00000000e+00    
           3.29561590e-05     8.09016346e-04     0.00000000e+00    
           3.07151131e-05     8.04081617e-04     0.00000000e+00    
           2.92382792e-05     7.99520058e-04     0.00000000e+00    
           2.76303890e-05     7.95269618e-04     0.00000000e+00    
           2.69010688e-05     7.91097700e-04     0.00000000e+00    
           2.71205263e-05     7.87182245e-04     0.00000000e+00    
           2.84107591e-05     7.84000964e-04     0.00000000e+00    
           3.06589027e-05     7.81855022e-04     0.00000000e+00    
           3.34938704e-05     7.80961709e-04     0.00000000e+00    