<?xml version="1.0"?>
<VTKFile type="UnstructuredGrid" version="0.1">
  <UnstructuredGrid>
    <Piece NumberOfPoints="1034" NumberOfCells="1614">
      <Points>
        <DataArray type="Float32" NumberOfComponents="3">
           5.21582007e-01     5.11657000e-01     0.00000000e+00    
           5.07319987e-01     5.11657000e-01     0.00000000e+00    
           4.65243995e-01     5.17907977e-01     0.00000000e+00    
           4.65243995e-01     5.04921973e-01     0.00000000e+00    
           4.75246996e-01     5.11415005e-01     0.00000000e+00    
           5.33852994e-01     5.04921973e-01     0.00000000e+00    
           5.33852994e-01     5.17907977e-01     0.00000000e+00    
           4.83779997e-01     5.34618974e-01     0.00000000e+00    
           4.68984991e-01     5.34618974e-01     0.00000000e+00    
           4.76381987e-01     5.23841977e-01     0.00000000e+00    
           4.68984991e-01     4.66010004e-01     0.00000000e+00    
           4.83779997e-01     4.66010004e-01     0.00000000e+00    
           4.99920011e-01     5.34618974e-01     0.00000000e+00    
           4.89203990e-01     5.34618974e-01     0.00000000e+00    
           4.94562000e-01     5.22280991e-01     0.00000000e+00    
           4.89203990e-01     4.66010004e-01     0.00000000e+00    
           4.99920011e-01     4.66010004e-01     0.00000000e+00    
           5.32517016e-01     4.74112004e-01     0.00000000e+00    
           5.17961025e-01     4.74112004e-01     0.00000000e+00    
           5.33852994e-01     5.19801974e-01     0.00000000e+00    
           5.33852994e-01     5.29603004e-01     0.00000000e+00    
           5.19536972e-01     5.24702013e-01     0.00000000e+00    
           4.65243995e-01     5.29603004e-01     0.00000000e+00    
           4.65243995e-01     5.19801974e-01     0.00000000e+00    
           4.92487997e-01     5.17117977e-01     0.00000000e+00    
           4.76904988e-01     5.17117977e-01     0.00000000e+00    
           5.17996013e-01     5.27033985e-01     0.00000000e+00    
           5.04473984e-01     5.27033985e-01     0.00000000e+00    
           5.08446991e-01     4.83435005e-01     0.00000000e+00    
           4.94414002e-01     4.83435005e-01     0.00000000e+00    
           4.65243995e-01     4.83101994e-01     0.00000000e+00    
           4.65243995e-01     4.74415004e-01     0.00000000e+00    
           4.78336990e-01     4.78758007e-01     0.00000000e+00    
           5.33852994e-01     4.74415004e-01     0.00000000e+00    
           5.33852994e-01     4.83101994e-01     0.00000000e+00    
           4.80668008e-01     4.95810986e-01     0.00000000e+00    
           4.66084987e-01     4.95810986e-01     0.00000000e+00    
           4.93930012e-01     4.79214013e-01     0.00000000e+00    
           4.78967011e-01     4.79214013e-01     0.00000000e+00    
           5.09284973e-01     4.97658014e-01     0.00000000e+00    
           4.95503992e-01     4.97658014e-01     0.00000000e+00    
           5.33011973e-01     5.01751006e-01     0.00000000e+00    
           5.17829001e-01     5.01751006e-01     0.00000000e+00    
           4.95451003e-01     5.00564992e-01     0.00000000e+00    
           4.80922014e-01     5.00564992e-01     0.00000000e+00    
           5.25367022e-01     4.88312006e-01     0.00000000e+00    
           5.09521008e-01     4.88312006e-01     0.00000000e+00    
           4.65243995e-01     5.34618974e-01     0.00000000e+00    
           4.65243995e-01     4.66010004e-01     0.00000000e+00    
           5.33852994e-01     4.66010004e-01     0.00000000e+00    
           5.33852994e-01     5.34618974e-01     0.00000000e+00    
           5.21338999e-01     5.13502657e-01     0.00000000e+00    
           5.20626605e-01     5.15222490e-01     0.00000000e+00    
           5.19493401e-01     5.16699374e-01     0.00000000e+00    
           5.18016517e-01     5.17832637e-01     0.00000000e+00    
           5.16296625e-01     5.18545032e-01     0.00000000e+00    
           5.14451027e-01     5.18787980e-01     0.00000000e+00    
           5.12605369e-01     5.18545032e-01     0.00000000e+00    
           5.10885477e-01     5.17832637e-01     0.00000000e+00    
           5.09408593e-01     5.16699374e-01     0.00000000e+00    
           5.08275390e-01     5.15222490e-01     0.00000000e+00    
           5.07562995e-01     5.13502657e-01     0.00000000e+00    
           5.07562995e-01     5.09811342e-01     0.00000000e+00    
           5.08275390e-01     5.08091509e-01     0.00000000e+00    
           5.09408593e-01     5.06614625e-01     0.00000000e+00    
           5.10885477e-01     5.05481362e-01     0.00000000e+00    
           5.12605369e-01     5.04768968e-01     0.00000000e+00    
           5.14451027e-01     5.04526019e-01     0.00000000e+00    
           5.16296625e-01     5.04768968e-01     0.00000000e+00    
           5.18016517e-01     5.05481362e-01     0.00000000e+00    
           5.19493401e-01     5.06614625e-01     0.00000000e+00    
           5.20626605e-01     5.08091509e-01     0.00000000e+00    
           5.21338999e-01     5.09811342e-01     0.00000000e+00    
           4.66931671e-01     5.04409373e-01     0.00000000e+00    
           4.68693614e-01     5.04328012e-01     0.00000000e+00    
           4.70421344e-01     5.04682958e-01     0.00000000e+00    
           4.72008497e-01     5.05452335e-01     0.00000000e+00    
           4.73357379e-01     5.06588817e-01     0.00000000e+00    
           4.74384934e-01     5.08022368e-01     0.00000000e+00    
           4.75027919e-01     5.09664834e-01     0.00000000e+00    
           4.75028187e-01     5.13165236e-01     0.00000000e+00    
           4.74385172e-01     5.14807761e-01     0.00000000e+00    
           4.73357558e-01     5.16241372e-01     0.00000000e+00    
           4.72008646e-01     5.17377913e-01     0.00000000e+00    
           4.70421433e-01     5.18147290e-01     0.00000000e+00    
           4.68693614e-01     5.18502235e-01     0.00000000e+00    
           4.66931641e-01     5.18420875e-01     0.00000000e+00    
           5.32303810e-01     5.16964078e-01     0.00000000e+00    
           5.31043947e-01     5.15658796e-01     0.00000000e+00    
           5.30155540e-01     5.14077127e-01     0.00000000e+00    
           5.29696345e-01     5.12322068e-01     0.00000000e+00    
           5.29696345e-01     5.10507941e-01     0.00000000e+00    
           5.30155540e-01     5.08752882e-01     0.00000000e+00    
           5.31043947e-01     5.07171214e-01     0.00000000e+00    
           5.32303810e-01     5.05865932e-01     0.00000000e+00    
           4.68517244e-01     5.32760799e-01     0.00000000e+00    
           4.68509018e-01     5.30844629e-01     0.00000000e+00    
           4.68960851e-01     5.28982460e-01     0.00000000e+00    
           4.69846308e-01     5.27283132e-01     0.00000000e+00    
           4.71113682e-01     5.25845945e-01     0.00000000e+00    
           4.72688884e-01     5.24754822e-01     0.00000000e+00    
           4.74479854e-01     5.24073541e-01     0.00000000e+00    
           4.78284091e-01     5.24073601e-01     0.00000000e+00    
           4.80075032e-01     5.24754822e-01     0.00000000e+00    
           4.81650203e-01     5.25845885e-01     0.00000000e+00    
           4.82917547e-01     5.27283013e-01     0.00000000e+00    
           4.83803004e-01     5.28982282e-01     0.00000000e+00    
           4.84254897e-01     5.30844331e-01     0.00000000e+00    
           4.84246761e-01     5.32760441e-01     0.00000000e+00    
           4.82887864e-01     4.67691004e-01     0.00000000e+00    
           4.81620818e-01     4.69110936e-01     0.00000000e+00    
           4.80051905e-01     4.70188022e-01     0.00000000e+00    
           4.78271484e-01     4.70860153e-01     0.00000000e+00    
           4.76382166e-01     4.71088618e-01     0.00000000e+00    
           4.74492878e-01     4.70860243e-01     0.00000000e+00    
           4.72712427e-01     4.70188200e-01     0.00000000e+00    
           4.71143454e-01     4.69111174e-01     0.00000000e+00    
           4.69876349e-01     4.67691302e-01     0.00000000e+00    
           4.88103986e-01     5.33086061e-01     0.00000000e+00    
           4.87431526e-01     5.31323195e-01     0.00000000e+00    
           4.87231195e-01     5.29447019e-01     0.00000000e+00    
           4.87516224e-01     5.27581930e-01     0.00000000e+00    
           4.88267750e-01     5.25851250e-01     0.00000000e+00    
           4.89436030e-01     5.24369657e-01     0.00000000e+00    
           4.90943670e-01     5.23235261e-01     0.00000000e+00    
           4.92690891e-01     5.22523046e-01     0.00000000e+00    
           4.96432930e-01     5.22523701e-01     0.00000000e+00    
           4.98180002e-01     5.23235798e-01     0.00000000e+00    
           4.99687493e-01     5.24370134e-01     0.00000000e+00    
           5.00855684e-01     5.25851607e-01     0.00000000e+00    
           5.01607120e-01     5.27582109e-01     0.00000000e+00    
           5.01892149e-01     5.29447079e-01     0.00000000e+00    
           5.01691818e-01     5.31323016e-01     0.00000000e+00    
           5.01019418e-01     5.33085763e-01     0.00000000e+00    
           4.98371124e-01     4.67269689e-01     0.00000000e+00    
           4.96539861e-01     4.68064904e-01     0.00000000e+00    
           4.94562000e-01     4.68336672e-01     0.00000000e+00    
           4.92584139e-01     4.68064904e-01     0.00000000e+00    
           4.90752876e-01     4.67269689e-01     0.00000000e+00    
           5.32269001e-01     4.75995690e-01     0.00000000e+00    
           5.31541944e-01     4.77750987e-01     0.00000000e+00    
           5.30385315e-01     4.79258329e-01     0.00000000e+00    
           5.28877974e-01     4.80414927e-01     0.00000000e+00    
[...]
      <PointData>
        <DataArray type="Float32" Name="Displacement" NumberOfComponents="3">
           8.02464419e-05     1.27682020e-03     0.00000000e+00    
           7.04329577e-05     1.29781361e-03     0.00000000e+00    
           2.44688454e-05     1.28384074e-03     0.00000000e+00    
           7.56522204e-05     1.26212358e-03     0.00000000e+00    
           5.81387067e-05     1.31439767e-03     0.00000000e+00    
           7.56522204e-05     1.26212358e-03     0.00000000e+00    
           2.44688454e-05     1.28384074e-03     0.00000000e+00    
           4.93406624e-05     1.90541346e-03     0.00000000e+00    
           4.05012725e-05     1.87990139e-03     0.00000000e+00    
           6.50591028e-05     1.87379611e-03     0.00000000e+00    
           4.05012725e-05    -7.00986493e-05     0.00000000e+00    
           4.93406624e-05    -4.45865589e-05     0.00000000e+00    
           6.26331239e-05     1.80795242e-03     0.00000000e+00    
           5.90472919e-05     1.84045872e-03     0.00000000e+00    
           2.19428421e-05     1.80230720e-03     0.00000000e+00    
           5.90472919e-05    -1.09541230e-04     0.00000000e+00    
           6.26331239e-05    -1.42047575e-04     0.00000000e+00    
           4.62959215e-05     2.80692708e-04     0.00000000e+00    
           3.67401626e-05     2.54749670e-04     0.00000000e+00    
           8.84226029e-05     1.64741569e-03     0.00000000e+00    
           7.67721867e-05     1.66593608e-03     0.00000000e+00    
           7.76633606e-05     1.64503092e-03     0.00000000e+00    
           7.67721867e-05     1.66593608e-03     0.00000000e+00    
           8.84226029e-05     1.64741569e-03     0.00000000e+00    
           5.96316640e-05     1.52292370e-03     0.00000000e+00    
           4.97561523e-05     1.45259709e-03     0.00000000e+00    
           7.40284886e-05     1.69047550e-03     0.00000000e+00    
           6.96734714e-05     1.73860462e-03     0.00000000e+00    
           6.52437884e-05     6.30461960e-04     0.00000000e+00    
           5.68338801e-05     5.42553084e-04     0.00000000e+00    
           3.02266417e-05     3.32969852e-04     0.00000000e+00    
           6.27227055e-05     3.17471393e-04     0.00000000e+00    
           5.20928370e-05     3.76003445e-04     0.00000000e+00    
           6.27227055e-05     3.17471393e-04     0.00000000e+00    
           3.02266417e-05     3.32969852e-04     0.00000000e+00    
           4.56667258e-05     9.31758899e-04     0.00000000e+00    
           3.77346551e-05     9.65775573e-04     0.00000000e+00    
           6.85741106e-05     4.80273127e-04     0.00000000e+00    
           6.08922383e-05     3.84682702e-04     0.00000000e+00    
           8.07233519e-05     8.60259985e-04     0.00000000e+00    
           7.14439957e-05     9.15594923e-04     0.00000000e+00    
           5.51257872e-05     1.10517989e-03     0.00000000e+00    
           4.41297852e-05     1.14233268e-03     0.00000000e+00    
           7.12104302e-05     9.40266182e-04     0.00000000e+00    
           6.27855261e-05     9.80653218e-04     0.00000000e+00    
           9.51024631e-05     6.94078975e-04     0.00000000e+00    
           8.36550025e-05     6.94618153e-04     0.00000000e+00    
           0.00000000e+00     1.94999995e-03     0.00000000e+00    
           0.00000000e+00     0.00000000e+00     0.00000000e+00    
           0.00000000e+00     0.00000000e+00     0.00000000e+00    
           0.00000000e+00     1.94999995e-03     0.00000000e+00    
           8.22225338e-05     1.28223270e-03     0.00000000e+00    
           8.40397115e-05     1.28600711e-03     0.00000000e+00    
           8.53220918e-05     1.28992822e-03     0.00000000e+00    
           8.59276333e-05     1.29352079e-03     0.00000000e+00    
           8.59749489e-05     1.29674771e-03     0.00000000e+00    
           8.51879813e-05     1.29958743e-03     0.00000000e+00    
           8.39561762e-05     1.30185846e-03     0.00000000e+00    
           8.22810180e-05     1.30341633e-03     0.00000000e+00    
           8.01779024e-05     1.30422809e-03     0.00000000e+00    
           7.68585232e-05     1.30360166e-03     0.00000000e+00    
           7.34509376e-05     1.30146916e-03     0.00000000e+00    
           6.82119280e-05     1.29319995e-03     0.00000000e+00    
           6.68681532e-05     1.28945697e-03     0.00000000e+00    
           6.55255571e-05     1.28603412e-03     0.00000000e+00    
           6.43073290e-05     1.28290919e-03     0.00000000e+00    
           6.38294878e-05     1.27969705e-03     0.00000000e+00    
           6.41606021e-05     1.27669040e-03     0.00000000e+00    
           6.58281278e-05     1.27394823e-03     0.00000000e+00    
           6.80166777e-05     1.27206102e-03     0.00000000e+00    
           7.09156011e-05     1.27138826e-03     0.00000000e+00    
           7.34809073e-05     1.27151224e-03     0.00000000e+00    
           7.65365912e-05     1.27306604e-03     0.00000000e+00    
           7.93758663e-05     1.26812095e-03     0.00000000e+00    
           8.11303980e-05     1.27527863e-03     0.00000000e+00    
           8.07543984e-05     1.28279347e-03     0.00000000e+00    
           7.85775555e-05     1.29025744e-03     0.00000000e+00    
           7.51486077e-05     1.29728741e-03     0.00000000e+00    
           7.07905201e-05     1.30355184e-03     0.00000000e+00    
           6.52205636e-05     1.30971498e-03     0.00000000e+00    
           4.97730216e-05     1.31736090e-03     0.00000000e+00    
           4.17805859e-05     1.31722225e-03     0.00000000e+00    
           3.47980094e-05     1.31504552e-03     0.00000000e+00    
           2.94589518e-05     1.31073303e-03     0.00000000e+00    
           2.57630782e-05     1.30508852e-03     0.00000000e+00    
           2.36164542e-05     1.29849452e-03     0.00000000e+00    
           2.31663344e-05     1.29128853e-03     0.00000000e+00    
           2.77091895e-05     1.27640518e-03     0.00000000e+00    
           3.27176967e-05     1.26975775e-03     0.00000000e+00    
           3.86263491e-05     1.26363186e-03     0.00000000e+00    
           4.48812934e-05     1.25840749e-03     0.00000000e+00    
           5.23494782e-05     1.25390035e-03     0.00000000e+00    
           5.96727987e-05     1.25253084e-03     0.00000000e+00    
           6.55675831e-05     1.25419849e-03     0.00000000e+00    
           7.09551678e-05     1.25744031e-03     0.00000000e+00    
           4.28133717e-05     1.87473500e-03     0.00000000e+00    
           4.70750492e-05     1.86988420e-03     0.00000000e+00    
           5.27722586e-05     1.86683796e-03     0.00000000e+00    
           5.72894460e-05     1.86597649e-03     0.00000000e+00    
           6.03748304e-05     1.86672655e-03     0.00000000e+00    
           6.25908287e-05     1.86844147e-03     0.00000000e+00    
           6.41245933e-05     1.87071855e-03     0.00000000e+00    
           6.53375464e-05     1.87739136e-03     0.00000000e+00    
           6.46186818e-05     1.88155286e-03     0.00000000e+00    
           6.25920875e-05     1.88571692e-03     0.00000000e+00    
           5.92346987e-05     1.88931660e-03     0.00000000e+00    
           5.59245782e-05     1.89343875e-03     0.00000000e+00    
           5.36657644e-05     1.89797010e-03     0.00000000e+00    
           5.18072375e-05     1.90192845e-03     0.00000000e+00    
           4.63831930e-05    -4.31349581e-05     0.00000000e+00    
           4.33028836e-05    -4.31033077e-05     0.00000000e+00    
           4.06961080e-05    -4.42585733e-05     0.00000000e+00    
           3.83692022e-05    -4.62929893e-05     0.00000000e+00    
           3.66704990e-05    -4.93973712e-05     0.00000000e+00    
           3.58049620e-05    -5.31174046e-05     0.00000000e+00    
           3.60741906e-05    -5.72731769e-05     0.00000000e+00    
           3.73520161e-05    -6.15555837e-05     0.00000000e+00    
           3.87337277e-05    -6.58303834e-05     0.00000000e+00    
           5.42203961e-05     1.84155337e-03     0.00000000e+00    
           4.87047473e-05     1.84019282e-03     0.00000000e+00    
           4.25142316e-05     1.83694635e-03     0.00000000e+00    
           3.56834353e-05     1.83151080e-03     0.00000000e+00    
           2.99964995e-05     1.82653219e-03     0.00000000e+00    
           2.53214821e-05     1.82099792e-03     0.00000000e+00    
           2.23930329e-05     1.81472895e-03     0.00000000e+00    
           2.13314288e-05     1.80825242e-03     0.00000000e+00    
           2.39503061e-05     1.79708772e-03     0.00000000e+00    
           2.71365971e-05     1.79302378e-03     0.00000000e+00    
           3.12073971e-05     1.79040281e-03     0.00000000e+00    
           3.59887890e-05     1.78934296e-03     0.00000000e+00    
           4.16918738e-05     1.79012050e-03     0.00000000e+00    
           4.79142800e-05     1.79246161e-03     0.00000000e+00    
           5.40747787e-05     1.79691927e-03     0.00000000e+00    
           5.88778421e-05     1.80218054e-03     0.00000000e+00    
           6.56247503e-05    -1.35744427e-04     0.00000000e+00    
           6.72455062e-05    -1.29215012e-04     0.00000000e+00    
           6.72972456e-05    -1.22898025e-04     0.00000000e+00    
           6.57885030e-05    -1.17266660e-04     0.00000000e+00    
           6.28746056e-05    -1.12666843e-04     0.00000000e+00    
           4.22037338e-05     2.83400354e-04     0.00000000e+00    
           3.77632277e-05     2.83995381e-04     0.00000000e+00    
           3.37759848e-05     2.84310023e-04     0.00000000e+00    
           3.11516742e-05     2.83293426e-04     0.00000000e+00    
           2.93121921e-05     2.81484652e-04     0.00000000e+00    
           2.80308686e-05     2.78621854e-04     0.00000000e+00    
           2.77132331e-05     2.75268976e-04     0.00000000e+00    
           2.82814945e-05     2.71418161e-04     0.00000000e+00    
           3.00174361e-05     2.67538242e-04     0.00000000e+00    
           3.23613422e-05     2.63798720e-04     0.00000000e+00    
           3.41535815e-05     2.59775377e-04     0.00000000e+00    
           3.99237906e-05     2.51287041e-04     0.00000000e+00    
           4.41426600e-05     2.48749071e-04     0.00000000e+00    
           4.78549737e-05     2.48667173e-04     0.00000000e+00    
           5.05570788e-05     2.49884964e-04     0.00000000e+00    
           5.25688120e-05     2.52177560e-04     0.00000000e+00    
           5.38573404e-05     2.55221588e-04     0.00000000e+00    
           5.42403068e-05     2.58720916e-04     0.00000000e+00    
           5.37170090e-05     2.62696965e-04     0.00000000e+00    
           5.29374993e-05     2.66660732e-04     0.00000000e+00    
           5.18168417e-05     2.71045952e-04     0.00000000e+00    
           4.97413021e-05     2.75731814e-04     0.00000000e+00    
           7.52544729e-05     1.66604342e-03     0.00000000e+00    
           7.42114426e-05     1.66570267e-03     0.00000000e+00    
           7.33838751e-05     1.66463351e-03     0.00000000e+00    
           7.31524269e-05     1.66290859e-03     0.00000000e+00    
           7.34948480e-05     1.66068855e-03     0.00000000e+00    
           7.41210824e-05     1.65826373e-03     0.00000000e+00    
           7.50449326e-05     1.65531831e-03     0.00000000e+00    
           7.65216028e-05     1.65192282e-03     0.00000000e+00    
           7.76722882e-05     1.64859404e-03     0.00000000e+00    
           7.76685483e-05     1.64091995e-03     0.00000000e+00    
           7.85656230e-05     1.63770257e-03     0.00000000e+00    
           8.08692203e-05     1.63563562e-03     0.00000000e+00    
           8.31401485e-05     1.63487857e-03     0.00000000e+00    
           8.51633013e-05     1.63518346e-03     0.00000000e+00    
           8.70737567e-05     1.63633516e-03     0.00000000e+00    
           8.85264017e-05     1.63833518e-03     0.00000000e+00    
           8.91806922e-05     1.64083717e-03     0.00000000e+00    
           8.91724994e-05     1.64396281e-03     0.00000000e+00    
           8.76834602e-05     1.65074028e-03     0.00000000e+00    
           8.68821808e-05     1.65461528e-03     0.00000000e+00    
           8.53949750e-05     1.65890809e-03     0.00000000e+00    
           8.22766451e-05     1.66289613e-03     0.00000000e+00    
           7.90037957e-05     1.66505913e-03     0.00000000e+00    
           5.12677616e-05     1.52619299e-03     0.00000000e+00    
           4.27308878e-05     1.52658159e-03     0.00000000e+00    
           3.57719255e-05     1.52381428e-03     0.00000000e+00    
           2.97965198e-05     1.51925231e-03     0.00000000e+00    
           2.48864053e-05     1.51316961e-03     0.00000000e+00    
           2.14535830e-05     1.50569202e-03     0.00000000e+00    
           1.99624392e-05     1.49715296e-03     0.00000000e+00    
           2.06641453e-05     1.48823461e-03     0.00000000e+00    
           2.35838925e-05     1.47941767e-03     0.00000000e+00    
           2.87652729e-05     1.47147803e-03     0.00000000e+00    
           3.49078255e-05     1.46423467e-03     0.00000000e+00    
           4.17565934e-05     1.45742227e-03     0.00000000e+00    
           5.88382572e-05     1.44959835e-03     0.00000000e+00    
           6.79940786e-05     1.44959963e-03     0.00000000e+00    
           7.60286784e-05     1.45224109e-03     0.00000000e+00    
           8.23997179e-05     1.45726255e-03     0.00000000e+00    
           8.68663410e-05     1.46371708e-03     0.00000000e+00    
           8.96091369e-05     1.47140806e-03     0.00000000e+00    
           9.03473774e-05     1.47994922e-03     0.00000000e+00    
           8.87411516e-05     1.48870039e-03     0.00000000e+00    
           8.52150479e-05     1.49722479e-03     0.00000000e+00    
           7.99894042e-05     1.50490634e-03     0.00000000e+00    
           7.38169692e-05     1.51183631e-03     0.00000000e+00    
           6.71329253e-05     1.51791808e-03     0.00000000e+00    
           8.14086234e-05     1.69552781e-03     0.00000000e+00    
           8.79164290e-05     1.70181005e-03     0.00000000e+00    
           9.25677159e-05     1.70868961e-03     0.00000000e+00    
           9.54396091e-05     1.71581446e-03     0.00000000e+00    
           9.62917038e-05     1.72297866e-03     0.00000000e+00    
           9.51735274e-05     1.72965636e-03     0.00000000e+00    
           9.24343549e-05     1.73529191e-03     0.00000000e+00    
           8.82894019e-05     1.73941872e-03     0.00000000e+00    
           8.28593838e-05     1.74140558e-03     0.00000000e+00    
           7.65190489e-05     1.74095156e-03     0.00000000e+00    
           6.29916467e-05     1.73367525e-03     0.00000000e+00    
           5.77673418e-05     1.72766449e-03     0.00000000e+00    
           5.38583517e-05     1.72104407e-03     0.00000000e+00    
           5.13766354e-05     1.71402330e-03     0.00000000e+00    
           5.00373171e-05     1.70697027e-03     0.00000000e+00    
           5.05035496e-05     1.70037686e-03     0.00000000e+00    
           5.25694704e-05     1.69456413e-03     0.00000000e+00    
           5.63044268e-05     1.69010321e-03     0.00000000e+00    
           6.14174205e-05     1.68808154e-03     0.00000000e+00    
           6.72440874e-05     1.68794498e-03     0.00000000e+00    
           5.45535004e-05     6.32480311e-04     0.00000000e+00    
           4.38028546e-05     6.31027564e-04     0.00000000e+00    
           3.40547886e-05     6.26525842e-04     0.00000000e+00    
           2.64900282e-05     6.19081256e-04     0.00000000e+00    
           2.14775482e-05     6.09493523e-04     0.00000000e+00    
           1.92200932e-05     5.98623184e-04     0.00000000e+00    
           1.98059497e-05     5.87192888e-04     0.00000000e+00    
           2.32513139e-05     5.76041173e-04     0.00000000e+00    
           2.85803399e-05     5.65601571e-04     0.00000000e+00    
           3.60673148e-05     5.56187704e-04     0.00000000e+00    
           4.55305963e-05     5.48207201e-04     0.00000000e+00    
           6.85814739e-05     5.41128858e-04     0.00000000e+00    
           7.96888271e-05     5.43186034e-04     0.00000000e+00    
           8.95992125e-05     5.48176060e-04     0.00000000e+00    
           9.68626991e-05     5.55738050e-04     0.00000000e+00    
           1.01707301e-04     5.65263326e-04     0.00000000e+00    
           1.03672195e-04     5.76169463e-04     0.00000000e+00    
           1.02806705e-04     5.87522343e-04     0.00000000e+00    
           9.91165289e-05     5.98576677e-04     0.00000000e+00    
           9.31991453e-05     6.08784030e-04     0.00000000e+00    
           8.56245315e-05     6.17496436e-04     0.00000000e+00    
           7.64483339e-05     6.24894863e-04     0.00000000e+00    
           6.89484732e-05     3.20269406e-04     0.00000000e+00    
           7.36519214e-05     3.24506284e-04     0.00000000e+00    
           7.67662350e-05     3.30383453e-04     0.00000000e+00    
           7.81173367e-05     3.37330712e-04     0.00000000e+00    
           7.76696179e-05     3.44670785e-04     0.00000000e+00    
           7.53183194e-05     3.52145667e-04     0.00000000e+00    
           7.15658607e-05     3.59256170e-04     0.00000000e+00    
           6.63551109e-05     3.66499182e-04     0.00000000e+00    
           5.96191239e-05     3.72430077e-04     0.00000000e+00    
           4.46792546e-05     3.77538439e-04     0.00000000e+00    
           3.79977646e-05     3.77942662e-04     0.00000000e+00    
           3.23013955e-05     3.76563898e-04     0.00000000e+00    
           2.73079968e-05     3.72803246e-04     0.00000000e+00    
           2.40144200e-05     3.67485773e-04     0.00000000e+00    
           2.21355240e-05     3.61062848e-04     0.00000000e+00    
           2.18723071e-05     3.53959622e-04     0.00000000e+00    
           2.33554674e-05     3.46670422e-04     0.00000000e+00    
           2.63951588e-05     3.39483842e-04     0.00000000e+00    
           3.51570088e-05     3.26779467e-04     0.00000000e+00    
           4.15458271e-05     3.21025436e-04     0.00000000e+00    
           4.89584454e-05     3.16978374e-04     0.00000000e+00    
           5.58040483e-05     3.16312362e-04     0.00000000e+00    
           4.88740552e-05     9.36016848e-04     0.00000000e+00    
           5.19604910e-05     9.39903606e-04     0.00000000e+00    
           5.46704614e-05     9.44538158e-04     0.00000000e+00    
           5.71537457e-05     9.49763984e-04     0.00000000e+00    
           5.83355795e-05     9.55058378e-04     0.00000000e+00    
           5.83117253e-05     9.59872268e-04     0.00000000e+00    
           5.71710370e-05     9.63990577e-04     0.00000000e+00    
           5.52663623e-05     9.67327564e-04     0.00000000e+00    
           5.24902352e-05     9.69654764e-04     0.00000000e+00    
           4.84151788e-05     9.70495283e-04     0.00000000e+00    
           4.31605731e-05     9.69193759e-04     0.00000000e+00    
           3.35502227e-05     9.61138809e-04     0.00000000e+00    
           3.05535250e-05     9.55893192e-04     0.00000000e+00    
           2.83375211e-05     9.50801768e-04     0.00000000e+00    
           2.61866462e-05     9.45770822e-04     0.00000000e+00    
           2.51527872e-05     9.40654543e-04     0.00000000e+00    
           2.53277576e-05     9.35718243e-04     0.00000000e+00    
           2.68166641e-05     9.31485440e-04     0.00000000e+00    
           2.95174359e-05     9.28310561e-04     0.00000000e+00    
           3.30642033e-05     9.26493201e-04     0.00000000e+00    