<?xml version="1.0"?>
<VTKFile type="UnstructuredGrid" version="0.1">
  <UnstructuredGrid>
    <Piece NumberOfPoints="1034" NumberOfCells="1614">
      <Points>
        <DataArray type="Float32" NumberOfComponents="3">
           5.21582007e-01     5.11657000e-01     0.00000000e+00    
           5.07319987e-01     5.11657000e-01     0.00000000e+00    
           4.65243995e-01     5.17907977e-01     0.00000000e+00    
           4.65243995e-01     5.04921973e-01     0.00000000e+00    
           4.75246996e-01     5.11415005e-01     0.00000000e+00    
           5.33852994e-01     5.04921973e-01     0.00000000e+00    
           5.33852994e-01     5.17907977e-01     0.00000000e+00    
           4.83779997e-01     5.34618974e-01     0.00000000e+00    
           4.68984991e-01     5.34618974e-01     0.00000000e+00    
           4.76381987e-01     5.23841977e-01     0.00000000e+00    
           4.68984991e-01     4.66010004e-01     0.00000000e+00    
           4.83779997e-01     4.66010004e-01     0.00000000e+00    
           4.99920011e-01     5.34618974e-01     0.00000000e+00    
           4.89203990e-01     5.34618974e-01     0.00000000e+00    
           4.94562000e-01     5.22280991e-01     0.00000000e+00    
           4.89203990e-01     4.66010004e-01     0.00000000e+00    
           4.99920011e-01     4.66010004e-01     0.00000000e+00    
           5.32517016e-01     4.74112004e-01     0.00000000e+00    
           5.17961025e-01     4.74112004e-01     0.00000000e+00    
           5.33852994e-01     5.19801974e-01     0.00000000e+00    
           5.33852994e-01     5.29603004e-01     0.00000000e+00    
           5.19536972e-01     5.24702013e-01     0.00000000e+00    
           4.65243995e-01     5.29603004e-01     0.00000000e+00    
           4.65243995e-01     5.19801974e-01     0.00000000e+00    
           4.92487997e-01     5.17117977e-01     0.00000000e+00    
           4.76904988e-01     5.17117977e-01     0.00000000e+00    
           5.17996013e-01     5.27033985e-01     0.00000000e+00    
           5.04473984e-01     5.27033985e-01     0.00000000e+00    
           5.08446991e-01     4.83435005e-01     0.00000000e+00    
           4.94414002e-01     4.83435005e-01     0.00000000e+00    
           4.65243995e-01     4.83101994e-01     0.00000000e+00    
           4.65243995e-01     4.74415004e-01     0.00000000e+00    
           4.78336990e-01     4.78758007e-01     0.00000000e+00    
           5.33852994e-01     4.74415004e-01     0.00000000e+00    
           5.33852994e-01     4.83101994e-01     0.00000000e+00    
           4.80668008e-01     4.95810986e-01     0.00000000e+00    
           4.66084987e-01     4.95810986e-01     0.00000000e+00    
           4.93930012e-01     4.79214013e-01     0.00000000e+00    
           4.78967011e-01     4.79214013e-01     0.00000000e+00    
           5.09284973e-01     4.97658014e-01     0.00000000e+00    
           4.95503992e-01     4.97658014e-01     0.00000000e+00    
           5.33011973e-01     5.01751006e-01     0.00000000e+00    
           5.17829001e-01     5.01751006e-01     0.00000000e+00    
           4.95451003e-01     5.00564992e-01     0.00000000e+00    
           4.80922014e-01     5.00564992e-01     0.00000000e+00    
           5.25367022e-01     4.88312006e-01     0.00000000e+00    
           5.09521008e-01     4.88312006e-01     0.00000000e+00    
           4.65243995e-01     5.34618974e-01     0.00000000e+00    
           4.65243995e-01     4.66010004e-01     0.00000000e+00    
           5.33852994e-01     4.66010004e-01     0.00000000e+00    
           5.33852994e-01     5.34618974e-01     0.00000000e+00    
           5.21338999e-01     5.13502657e-01     0.00000000e+00    
           5.20626605e-01     5.15222490e-01     0.00000000e+00    
           5.19493401e-01     5.16699374e-01     0.00000000e+00    
           5.18016517e-01     5.17832637e-01     0.00000000e+00    
           5.16296625e-01     5.18545032e-01     0.00000000e+00    
           5.14451027e-01     5.18787980e-01     0.00000000e+00    
           5.12605369e-01     5.18545032e-01     0.00000000e+00    
           5.10885477e-01     5.17832637e-01     0.00000000e+00    
           5.09408593e-01     5.16699374e-01     0.00000000e+00    
           5.08275390e-01     5.15222490e-01     0.00000000e+00    
           5.07562995e-01     5.13502657e-01     0.00000000e+00    
           5.07562995e-01     5.09811342e-01     0.00000000e+00    
           5.08275390e-01     5.08091509e-01     0.00000000e+00    
           5.09408593e-01     5.06614625e-01     0.00000000e+00    
           5.10885477e-01     5.05481362e-01     0.00000000e+00    
           5.12605369e-01     5.04768968e-01     0.00000000e+00    
           5.14451027e-01     5.04526019e-01     0.00000000e+00    
           5.16296625e-01     5.04768968e-01     0.00000000e+00    
           5.18016517e-01     5.05481362e-01     0.00000000e+00    
           5.19493401e-01     5.06614625e-01     0.00000000e+00    
           5.20626605e-01     5.08091509e-01     0.00000000e+00    
           5.21338999e-01     5.09811342e-01     0.00000000e+00    
           4.66931671e-01     5.04409373e-01     0.00000000e+00    
           4.68693614e-01     5.04328012e-01     0.00000000e+00    
           4.70421344e-01     5.04682958e-01     0.00000000e+00    
           4.72008497e-01     5.05452335e-01     0.00000000e+00    
           4.73357379e-01     5.06588817e-01     0.00000000e+00    
           4.74384934e-01     5.08022368e-01     0.00000000e+00    
           4.75027919e-01     5.09664834e-01     0.00000000e+00    
           4.75028187e-01     5.13165236e-01     0.00000000e+00    
           4.74385172e-01     5.14807761e-01     0.00000000e+00    
           4.73357558e-01     5.16241372e-01     0.00000000e+00    
           4.72008646e-01     5.17377913e-01     0.00000000e+00    
           4.70421433e-01     5.18147290e-01     0.00000000e+00    
           4.68693614e-01     5.18502235e-01     0.00000000e+00    
           4.66931641e-01     5.18420875e-01     0.00000000e+00    
           5.32303810e-01     5.16964078e-01     0.00000000e+00    
           5.31043947e-01     5.15658796e-01     0.00000000e+00    
           5.30155540e-01     5.14077127e-01     0.00000000e+00    
           5.29696345e-01     5.12322068e-01     0.00000000e+00    
           5.29696345e-01     5.10507941e-01     0.00000000e+00    
           5.30155540e-01     5.08752882e-01     0.00000000e+00    
           5.31043947e-01     5.07171214e-01     0.00000000e+00    
           5.32303810e-01     5.05865932e-01     0.00000000e+00    
           4.68517244e-01     5.32760799e-01     0.00000000e+00    
           4.68509018e-01     5.30844629e-01     0.00000000e+00    
           4.68960851e-01     5.28982460e-01     0.00000000e+00    
           4.69846308e-01     5.27283132e-01     0.00000000e+00    
           4.71113682e-01     5.25845945e-01     0.00000000e+00    
           4.72688884e-01     5.24754822e-01     0.00000000e+00    
           4.74479854e-01     5.24073541e-01     0.00000000e+00    
           4.78284091e-01     5.24073601e-01     0.00000000e+00    
           4.80075032e-01     5.24754822e-01     0.00000000e+00    
           4.81650203e-01     5.25845885e-01     0.00000000e+00    
           4.82917547e-01     5.27283013e-01     0.00000000e+00    
           4.83803004e-01     5.28982282e-01     0.00000000e+00    
           4.84254897e-01     5.30844331e-01     0.00000000e+00    
           4.84246761e-01     5.32760441e-01     0.00000000e+00    
           4.82887864e-01     4.67691004e-01     0.00000000e+00    
           4.81620818e-01     4.69110936e-01     0.00000000e+00    
           4.80051905e-01     4.70188022e-01     0.00000000e+00    
           4.78271484e-01     4.70860153e-01     0.00000000e+00    
           4.76382166e-01     4.71088618e-01     0.00000000e+00    
           4.74492878e-01     4.70860243e-01     0.00000000e+00    
           4.72712427e-01     4.70188200e-01     0.00000000e+00    
           4.71143454e-01     4.69111174e-01     0.00000000e+00    
           4.69876349e-01     4.67691302e-01     0.00000000e+00    
           4.88103986e-01     5.33086061e-01     0.00000000e+00    
           4.87431526e-01     5.31323195e-01     0.00000000e+00    
           4.87231195e-01     5.29447019e-01     0.00000000e+00    
           4.87516224e-01     5.27581930e-01     0.00000000e+00    
           4.88267750e-01     5.25851250e-01     0.00000000e+00    
           4.89436030e-01     5.24369657e-01     0.00000000e+00    
           4.90943670e-01     5.23235261e-01     0.00000000e+00    
           4.92690891e-01     5.22523046e-01     0.00000000e+00    
           4.96432930e-01     5.22523701e-01     0.00000000e+00    
           4.98180002e-01     5.23235798e-01     0.00000000e+00    
           4.99687493e-01     5.24370134e-01     0.00000000e+00    
           5.00855684e-01     5.25851607e-01     0.00000000e+00    
           5.01607120e-01     5.27582109e-01     0.00000000e+00    
           5.01892149e-01     5.29447079e-01     0.00000000e+00    
           5.01691818e-01     5.31323016e-01     0.00000000e+00    
           5.01019418e-01     5.33085763e-01     0.00000000e+00    
           4.98371124e-01     4.67269689e-01     0.00000000e+00    
           4.96539861e-01     4.68064904e-01     0.00000000e+00    
           4.94562000e-01     4.68336672e-01     0.00000000e+00    
           4.92584139e-01     4.68064904e-01     0.00000000e+00    
           4.90752876e-01     4.67269689e-01     0.00000000e+00    
           5.32269001e-01     4.75995690e-01     0.00000000e+00    
           5.31541944e-01     4.77750987e-01     0.00000000e+00    
           5.30385315e-01     4.79258329e-01     0.00000000e+00    
           5.28877974e-01     4.80414927e-01     0.00000000e+00    
[...]
      <PointData>
        <DataArray type="Float32" Name="Displacement" NumberOfComponents="3">
           7.07326690e-05     1.06070214e-03     0.00000000e+00    
           6.20508799e-05     1.07244262e-03     0.00000000e+00    
           2.39724977e-05     1.07112911e-03     0.00000000e+00    
           6.42980085e-05     1.04922534e-03     0.00000000e+00    
           5.11531471e-05     1.09327293e-03     0.00000000e+00    
           6.42980085e-05     1.04922534e-03     0.00000000e+00    
           2.39724977e-05     1.07112911e-03     0.00000000e+00    
           4.49731633e-05     1.57630828e-03     0.00000000e+00    
           3.72497852e-05     1.54973206e-03     0.00000000e+00    
           6.17237893e-05     1.54425658e-03     0.00000000e+00    
           3.72497852e-05    -5.02679250e-05     0.00000000e+00    
           4.49731633e-05    -2.36916749e-05     0.00000000e+00    
           5.29304925e-05     1.49957871e-03     0.00000000e+00    
           4.94078740e-05     1.52380043e-03     0.00000000e+00    
           2.17452125e-05     1.49041915e-03     0.00000000e+00    
           4.94078740e-05    -7.61995980e-05     0.00000000e+00    
           5.29304925e-05    -1.00421297e-04     0.00000000e+00    
           4.06561885e-05     2.29791811e-04     0.00000000e+00    
           3.28301285e-05     2.15560867e-04     0.00000000e+00    
           7.86553937e-05     1.34940457e-03     0.00000000e+00    
           6.59855868e-05     1.36790343e-03     0.00000000e+00    
           6.83004546e-05     1.34555565e-03     0.00000000e+00    
           6.59855868e-05     1.36790343e-03     0.00000000e+00    
           7.86553937e-05     1.34940457e-03     0.00000000e+00    
           5.37335436e-05     1.27334578e-03     0.00000000e+00    
           4.54538749e-05     1.21965958e-03     0.00000000e+00    
           6.60156220e-05     1.38783688e-03     0.00000000e+00    
           6.26779147e-05     1.43090729e-03     0.00000000e+00    
           5.92905344e-05     5.22037502e-04     0.00000000e+00    
           5.20621070e-05     4.48655832e-04     0.00000000e+00    
           3.22778687e-05     2.76939303e-04     0.00000000e+00    
           5.45435250e-05     2.61920330e-04     0.00000000e+00    
           4.75648812e-05     3.04042973e-04     0.00000000e+00    
           5.45435250e-05     2.61920330e-04     0.00000000e+00    
           3.22778687e-05     2.76939303e-04     0.00000000e+00    
           4.20041397e-05     7.64082244e-04     0.00000000e+00    
           3.57870740e-05     7.88562989e-04     0.00000000e+00    
           6.05604728e-05     3.88315122e-04     0.00000000e+00    
           5.44194627e-05     3.11010488e-04     0.00000000e+00    
           7.07971412e-05     7.10938359e-04     0.00000000e+00    
           6.24753811e-05     7.54132110e-04     0.00000000e+00    
           5.08484554e-05     9.14941367e-04     0.00000000e+00    
           4.11259462e-05     9.40378406e-04     0.00000000e+00    
           6.11010473e-05     7.78422807e-04     0.00000000e+00    
           5.39880020e-05     8.11329228e-04     0.00000000e+00    
           8.84684050e-05     5.76529186e-04     0.00000000e+00    
           7.86201126e-05     5.78329200e-04     0.00000000e+00    
           0.00000000e+00     1.59999996e-03     0.00000000e+00    
           0.00000000e+00     0.00000000e+00     0.00000000e+00    
           0.00000000e+00     0.00000000e+00     0.00000000e+00    
           0.00000000e+00     1.59999996e-03     0.00000000e+00    
           7.17143776e-05     1.06588390e-03     0.00000000e+00    
           7.26115395e-05     1.06935366e-03     0.00000000e+00    
           7.29901658e-05     1.07261038e-03     0.00000000e+00    
           7.28381419e-05     1.07532099e-03     0.00000000e+00    
           7.23440753e-05     1.07739051e-03     0.00000000e+00    
           7.14656053e-05     1.07899203e-03     0.00000000e+00    
           7.05413986e-05     1.08002801e-03     0.00000000e+00    
           6.95233102e-05     1.08043547e-03     0.00000000e+00    
           6.83114704e-05     1.08023849e-03     0.00000000e+00    
           6.60365986e-05     1.07874535e-03     0.00000000e+00    
           6.38720958e-05     1.07610389e-03     0.00000000e+00    
           6.08349874e-05     1.06818439e-03     0.00000000e+00    
           6.02782020e-05     1.06494152e-03     0.00000000e+00    
           5.96970058e-05     1.06223067e-03     0.00000000e+00    
           5.91356111e-05     1.06004893e-03     0.00000000e+00    
           5.90052441e-05     1.05801760e-03     0.00000000e+00    
           5.93706864e-05     1.05632714e-03     0.00000000e+00    
           6.07437869e-05     1.05476344e-03     0.00000000e+00    
           6.24192398e-05     1.05378986e-03     0.00000000e+00    
           6.46261688e-05     1.05393876e-03     0.00000000e+00    
           6.62546299e-05     1.05475122e-03     0.00000000e+00    
           6.82181271e-05     1.05679152e-03     0.00000000e+00    
           6.76544732e-05     1.05383922e-03     0.00000000e+00    
           6.92891335e-05     1.05957279e-03     0.00000000e+00    
           6.90768356e-05     1.06567971e-03     0.00000000e+00    
           6.73691538e-05     1.07183936e-03     0.00000000e+00    
           6.46838816e-05     1.07781228e-03     0.00000000e+00    
           6.13060256e-05     1.08329754e-03     0.00000000e+00    
           5.68661126e-05     1.08892773e-03     0.00000000e+00    
           4.43602694e-05     1.09616830e-03     0.00000000e+00    
           3.79554403e-05     1.09642046e-03     0.00000000e+00    
           3.24519679e-05     1.09509204e-03     0.00000000e+00    
           2.82908059e-05     1.09202834e-03     0.00000000e+00    
           2.53679518e-05     1.08782935e-03     0.00000000e+00    
           2.35755797e-05     1.08279358e-03     0.00000000e+00    
           2.30448968e-05     1.07711239e-03     0.00000000e+00    
           2.64615337e-05     1.06502103e-03     0.00000000e+00    
           3.04450023e-05     1.05946173e-03     0.00000000e+00    
           3.49611655e-05     1.05399196e-03     0.00000000e+00    
           3.97719305e-05     1.04907516e-03     0.00000000e+00    
           4.57210153e-05     1.04455231e-03     0.00000000e+00    
           5.14997664e-05     1.04274065e-03     0.00000000e+00    
           5.60977096e-05     1.04362424e-03     0.00000000e+00    
           6.03893495e-05     1.04579749e-03     0.00000000e+00    
           3.98252305e-05     1.54458079e-03     0.00000000e+00    
           4.41547381e-05     1.53998239e-03     0.00000000e+00    
           4.96319735e-05     1.53715583e-03     0.00000000e+00    
           5.40316614e-05     1.53635244e-03     0.00000000e+00    
           5.71356322e-05     1.53710123e-03     0.00000000e+00    
           5.93161421e-05     1.53882406e-03     0.00000000e+00    
           6.07979564e-05     1.54112652e-03     0.00000000e+00    
           6.19981220e-05     1.54794671e-03     0.00000000e+00    
           6.11962460e-05     1.55221019e-03     0.00000000e+00    
           5.90536292e-05     1.55648938e-03     0.00000000e+00    
           5.55619554e-05     1.56024774e-03     0.00000000e+00    
           5.20316535e-05     1.56454660e-03     0.00000000e+00    
           4.94573069e-05     1.56911032e-03     0.00000000e+00    
           4.73975197e-05     1.57295121e-03     0.00000000e+00    
           4.22130834e-05    -2.22658728e-05     0.00000000e+00    
           3.93301161e-05    -2.22278723e-05     0.00000000e+00    
           3.68004330e-05    -2.34223680e-05     0.00000000e+00    
           3.44740256e-05    -2.55207706e-05     0.00000000e+00    
           3.27798007e-05    -2.87261628e-05     0.00000000e+00    
           3.19681276e-05    -3.25519468e-05     0.00000000e+00    
           3.23358217e-05    -3.68557448e-05     0.00000000e+00    
           3.37571946e-05    -4.13094240e-05     0.00000000e+00    
           3.52710376e-05    -4.57798524e-05     0.00000000e+00    
           4.58814138e-05     1.52384897e-03     0.00000000e+00    
           4.18305863e-05     1.52187888e-03     0.00000000e+00    
           3.71133756e-05     1.51851424e-03     0.00000000e+00    
           3.16747646e-05     1.51340582e-03     0.00000000e+00    
           2.73158348e-05     1.50905328e-03     0.00000000e+00    
           2.36881533e-05     1.50455104e-03     0.00000000e+00    
           2.15667806e-05     1.49958883e-03     0.00000000e+00    
           2.09620903e-05     1.49468530e-03     0.00000000e+00    
           2.34809231e-05     1.48694438e-03     0.00000000e+00    
           2.58871260e-05     1.48433517e-03     0.00000000e+00    
           2.88823412e-05     1.48280838e-03     0.00000000e+00    
           3.24071843e-05     1.48242223e-03     0.00000000e+00    
           3.67387765e-05     1.48332957e-03     0.00000000e+00    
           4.15952636e-05     1.48550572e-03     0.00000000e+00    
           4.64193290e-05     1.48952741e-03     0.00000000e+00    
           5.01446339e-05     1.49431499e-03     0.00000000e+00    
           5.49068100e-05    -9.51498951e-05     0.00000000e+00    
           5.59185064e-05    -8.99303632e-05     0.00000000e+00    
           5.57403146e-05    -8.51129880e-05     0.00000000e+00    
           5.44225550e-05    -8.10639249e-05     0.00000000e+00    
           5.21961301e-05    -7.79841939e-05     0.00000000e+00    
           3.81681602e-05     2.32514823e-04     0.00000000e+00    
           3.53125797e-05     2.33541796e-04     0.00000000e+00    
           3.27915441e-05     2.34633088e-04     0.00000000e+00    
           3.12401899e-05     2.35047512e-04     0.00000000e+00    
           3.00581014e-05     2.34840641e-04     0.00000000e+00    
           2.90110420e-05     2.33572195e-04     0.00000000e+00    
           2.86475570e-05     2.31831669e-04     0.00000000e+00    
           2.87408948e-05     2.29425015e-04     0.00000000e+00    
           2.96987710e-05     2.26766977e-04     0.00000000e+00    
           3.09686875e-05     2.23888128e-04     0.00000000e+00    
           3.15639045e-05     2.20375368e-04     0.00000000e+00    
           3.45018234e-05     2.11911552e-04     0.00000000e+00    
           3.71309507e-05     2.08747515e-04     0.00000000e+00    
           3.96264368e-05     2.07634730e-04     0.00000000e+00    
           4.13915368e-05     2.07640682e-04     0.00000000e+00    
           4.27258165e-05     2.08535959e-04     0.00000000e+00    
           4.36568916e-05     2.10083177e-04     0.00000000e+00    
           4.40460353e-05     2.12105151e-04     0.00000000e+00    
           4.38691059e-05     2.14740663e-04     0.00000000e+00    
           4.38068600e-05     2.17599896e-04     0.00000000e+00    
           4.36265036e-05     2.21203067e-04     0.00000000e+00    
           4.26794395e-05     2.25304859e-04     0.00000000e+00    
           6.42777668e-05     1.36785710e-03     0.00000000e+00    
           6.31926086e-05     1.36734499e-03     0.00000000e+00    
           6.24172098e-05     1.36608409e-03     0.00000000e+00    
           6.23378219e-05     1.36414566e-03     0.00000000e+00    
           6.29329152e-05     1.36169011e-03     0.00000000e+00    
           6.38600031e-05     1.35903619e-03     0.00000000e+00    
           6.50281509e-05     1.35586166e-03     0.00000000e+00    
           6.67445347e-05     1.35229714e-03     0.00000000e+00    
           6.81109013e-05     1.34898152e-03     0.00000000e+00    
           6.83820908e-05     1.34161697e-03     0.00000000e+00    
           6.91853202e-05     1.33847387e-03     0.00000000e+00    
           7.13920163e-05     1.33642450e-03     0.00000000e+00    
           7.37899827e-05     1.33581099e-03     0.00000000e+00    
           7.59429240e-05     1.33626803e-03     0.00000000e+00    
           7.79284092e-05     1.33762986e-03     0.00000000e+00    
           7.93733925e-05     1.33986666e-03     0.00000000e+00    
           7.98248439e-05     1.34249683e-03     0.00000000e+00    
           7.96289169e-05     1.34578743e-03     0.00000000e+00    
           7.77486493e-05     1.35291938e-03     0.00000000e+00    
           7.65842778e-05     1.35697459e-03     0.00000000e+00    
           7.47551167e-05     1.36124273e-03     0.00000000e+00    
           7.15854912e-05     1.36506127e-03     0.00000000e+00    
           6.83455219e-05     1.36709644e-03     0.00000000e+00    
           4.74917542e-05     1.27685093e-03     0.00000000e+00    
           4.09999084e-05     1.27812068e-03     0.00000000e+00    
           3.58393554e-05     1.27652299e-03     0.00000000e+00    
           3.13354831e-05     1.27350818e-03     0.00000000e+00    
           2.74521663e-05     1.26921991e-03     0.00000000e+00    
           2.44965140e-05     1.26370974e-03     0.00000000e+00    
           2.30628157e-05     1.25718175e-03     0.00000000e+00    
           2.33380597e-05     1.25018461e-03     0.00000000e+00    
           2.54293373e-05     1.24312169e-03     0.00000000e+00    
           2.94061756e-05     1.23664388e-03     0.00000000e+00    
           3.39679500e-05     1.23045244e-03     0.00000000e+00    
           3.92524889e-05     1.22420443e-03     0.00000000e+00    
           5.25530049e-05     1.21657038e-03     0.00000000e+00    
           5.97133076e-05     1.21600332e-03     0.00000000e+00    
           6.59438738e-05     1.21749064e-03     0.00000000e+00    
           7.08829757e-05     1.22090627e-03     0.00000000e+00    
           7.43043856e-05     1.22554589e-03     0.00000000e+00    
           7.64116121e-05     1.23123755e-03     0.00000000e+00    
           7.70148981e-05     1.23774365e-03     0.00000000e+00    
           7.57396265e-05     1.24453206e-03     0.00000000e+00    
           7.29767125e-05     1.25129323e-03     0.00000000e+00    
           6.89495137e-05     1.25751854e-03     0.00000000e+00    
           6.42793675e-05     1.26331579e-03     0.00000000e+00    
           5.93085460e-05     1.26865623e-03     0.00000000e+00    
           7.26349244e-05     1.39257684e-03     0.00000000e+00    
           7.85986995e-05     1.39859691e-03     0.00000000e+00    
           8.27174881e-05     1.40507601e-03     0.00000000e+00    
           8.50388024e-05     1.41156919e-03     0.00000000e+00    
           8.56443730e-05     1.41793513e-03     0.00000000e+00    
           8.45643081e-05     1.42374076e-03     0.00000000e+00    
           8.21865760e-05     1.42851518e-03     0.00000000e+00    
           7.86664532e-05     1.43188646e-03     0.00000000e+00    
           7.40387477e-05     1.43343781e-03     0.00000000e+00    
           6.86088242e-05     1.43301301e-03     0.00000000e+00    
           5.68157266e-05     1.42641540e-03     0.00000000e+00    
           5.21937000e-05     1.42074947e-03     0.00000000e+00    
           4.87694379e-05     1.41441217e-03     0.00000000e+00    
           4.67361460e-05     1.40782876e-03     0.00000000e+00    
           4.55057816e-05     1.40136946e-03     0.00000000e+00    
           4.58685063e-05     1.39544567e-03     0.00000000e+00    
           4.76303467e-05     1.39036251e-03     0.00000000e+00    
           5.07687910e-05     1.38661207e-03     0.00000000e+00    
           5.51235062e-05     1.38518133e-03     0.00000000e+00    
           6.01047941e-05     1.38534652e-03     0.00000000e+00    
           5.06200995e-05     5.24053932e-04     0.00000000e+00    
           4.17897572e-05     5.23204682e-04     0.00000000e+00    
           3.37453603e-05     5.19946625e-04     0.00000000e+00    
           2.75430211e-05     5.14223764e-04     0.00000000e+00    
           2.34074105e-05     5.06539596e-04     0.00000000e+00    
           2.14415613e-05     4.97626490e-04     0.00000000e+00    
           2.18330388e-05     4.88083810e-04     0.00000000e+00    
           2.46135460e-05     4.78636648e-04     0.00000000e+00    
           2.87257808e-05     4.69578139e-04     0.00000000e+00    
           3.48189933e-05     4.61108197e-04     0.00000000e+00    
           4.26613515e-05     4.53852757e-04     0.00000000e+00    
           6.17477199e-05     4.47187282e-04     0.00000000e+00    
           7.09122687e-05     4.48666862e-04     0.00000000e+00    
           7.90601989e-05     4.52587905e-04     0.00000000e+00    
           8.49742573e-05     4.58520546e-04     0.00000000e+00    
           8.89401927e-05     4.66190337e-04     0.00000000e+00    
           9.05577908e-05     4.75145731e-04     0.00000000e+00    
           8.98914514e-05     4.84568503e-04     0.00000000e+00    
           8.69180221e-05     4.93873842e-04     0.00000000e+00    
           8.22208385e-05     5.02642361e-04     0.00000000e+00    
           7.60645853e-05     5.10369660e-04     0.00000000e+00    
           6.84842453e-05     5.17045613e-04     0.00000000e+00    
           5.89861302e-05     2.63190974e-04     0.00000000e+00    
           6.23501619e-05     2.65322073e-04     0.00000000e+00    
           6.46718036e-05     2.68966163e-04     0.00000000e+00    
           6.57720957e-05     2.73622805e-04     0.00000000e+00    
           6.56099583e-05     2.78738036e-04     0.00000000e+00    
           6.40762955e-05     2.84207170e-04     0.00000000e+00    
           6.15808749e-05     2.89669144e-04     0.00000000e+00    
           5.79349689e-05     2.95734557e-04     0.00000000e+00    
           5.30411453e-05     3.00818094e-04     0.00000000e+00    
           4.23728525e-05     3.05797468e-04     0.00000000e+00    
           3.79191224e-05     3.06974951e-04     0.00000000e+00    
           3.42014428e-05     3.07003589e-04     0.00000000e+00    
           3.07664195e-05     3.05035268e-04     0.00000000e+00    
           2.86437171e-05     3.01797467e-04     0.00000000e+00    
           2.73190890e-05     2.97587860e-04     0.00000000e+00    
           2.70348100e-05     2.92688899e-04     0.00000000e+00    
           2.79420146e-05     2.87442788e-04     0.00000000e+00    
           2.99242383e-05     2.82042107e-04     0.00000000e+00    
           3.55039410e-05     2.71655590e-04     0.00000000e+00    
           3.98831617e-05     2.66592455e-04     0.00000000e+00    
           4.50191437e-05     2.62811052e-04     0.00000000e+00    
           4.96872672e-05     2.61716603e-04     0.00000000e+00    
           4.39393589e-05     7.68032041e-04     0.00000000e+00    
           4.59590483e-05     7.71331193e-04     0.00000000e+00    
           4.78777511e-05     7.75133085e-04     0.00000000e+00    
           4.97318033e-05     7.79482769e-04     0.00000000e+00    
           5.04881391e-05     7.83719821e-04     0.00000000e+00    
           5.03811934e-05     7.87324505e-04     0.00000000e+00    
           4.95146414e-05     7.90208753e-04     0.00000000e+00    
           4.82488940e-05     7.92346196e-04     0.00000000e+00    
           4.65092307e-05     7.93590909e-04     0.00000000e+00    
           4.36610608e-05     7.93640618e-04     0.00000000e+00    
           3.98318989e-05     7.91935949e-04     0.00000000e+00    
           3.27178677e-05     7.84190954e-04     0.00000000e+00    
           3.05976719e-05     7.79309950e-04     0.00000000e+00    
           2.92355198e-05     7.74832093e-04     0.00000000e+00    
           2.77114395e-05     7.70704937e-04     0.00000000e+00    
           2.70277342e-05     7.66684592e-04     0.00000000e+00    
           2.72504076e-05     7.62935262e-04     0.00000000e+00    
           2.85031656e-05     7.59926857e-04     0.00000000e+00    
           3.06767397e-05     7.57949078e-04     0.00000000e+00    
           3.33953285e-05     7.57209840e-04     0.00000000e+00    