<?xml version="1.0"?>
<VTKFile type="UnstructuredGrid" version="0.1">
  <UnstructuredGrid>
    <Piece NumberOfPoints="1034" NumberOfCells="1614">
      <Points>
        <DataArray type="Float32" NumberOfComponents="3">
           5.21582007e-01     5.11657000e-01     0.00000000e+00    
           5.07319987e-01     5.11657000e-01     0.00000000e+00    
           4.65243995e-01     5.17907977e-01     0.00000000e+00    
           4.65243995e-01     5.04921973e-01     0.00000000e+00    
           4.75246996e-01     5.11415005e-01     0.00000000e+00    
           5.33852994e-01     5.04921973e-01     0.00000000e+00    
           5.33852994e-01     5.17907977e-01     0.00000000e+00    
           4.83779997e-01     5.34618974e-01     0.00000000e+00    
           4.68984991e-01     5.34618974e-01     0.00000000e+00    
           4.76381987e-01     5.23841977e-01     0.00000000e+00    
           4.68984991e-01     4.66010004e-01     0.00000000e+00    
           4.83779997e-01     4.66010004e-01     0.00000000e+00    
           4.99920011e-01     5.34618974e-01     0.00000000e+00    
           4.89203990e-01     5.34618974e-01     0.00000000e+00    
           4.94562000e-01     5.22280991e-01     0.00000000e+00    
           4.89203990e-01     4.66010004e-01     0.00000000e+00    
           4.99920011e-01     4.66010004e-01     0.00000000e+00    
           5.32517016e-01     4.74112004e-01     0.00000000e+00    
           5.17961025e-01     4.74112004e-01     0.00000000e+00    
           5.33852994e-01     5.19801974e-01     0.00000000e+00    
           5.33852994e-01     5.29603004e-01     0.00000000e+00    
           5.19536972e-01     5.24702013e-01     0.00000000e+00    
           4.65243995e-01     5.29603004e-01     0.00000000e+00    
           4.65243995e-01     5.19801974e-01     0.00000000e+00    
           4.92487997e-01     5.17117977e-01     0.00000000e+00    
           4.76904988e-01     5.17117977e-01     0.00000000e+00    
           5.17996013e-01     5.27033985e-01     0.00000000e+00    
           5.04473984e-01     5.27033985e-01     0.00000000e+00    
           5.08446991e-01     4.83435005e-01     0.00000000e+00    
           4.94414002e-01     4.83435005e-01     0.00000000e+00    
           4.65243995e-01     4.83101994e-01     0.00000000e+00    
           4.65243995e-01     4.74415004e-01     0.00000000e+00    
           4.78336990e-01     4.78758007e-01     0.00000000e+00    
           5.33852994e-01     4.74415004e-01     0.00000000e+00    
           5.33852994e-01     4.83101994e-01     0.00000000e+00    
           4.80668008e-01     4.95810986e-01     0.00000000e+00    
           4.66084987e-01     4.95810986e-01     0.00000000e+00    
           4.93930012e-01     4.79214013e-01     0.00000000e+00    
           4.78967011e-01     4.79214013e-01     0.00000000e+00    
           5.09284973e-01     4.97658014e-01     0.00000000e+00    
           4.95503992e-01     4.97658014e-01     0.00000000e+00    
           5.33011973e-01     5.01751006e-01     0.00000000e+00    
           5.17829001e-01     5.01751006e-01     0.00000000e+00    
           4.95451003e-01     5.00564992e-01     0.00000000e+00    
           4.80922014e-01     5.00564992e-01     0.00000000e+00    
           5.25367022e-01     4.88312006e-01     0.00000000e+00    
           5.09521008e-01     4.88312006e-01     0.00000000e+00    
           4.65243995e-01     5.34618974e-01     0.00000000e+00    
           4.65243995e-01     4.66010004e-01     0.00000000e+00    
           5.33852994e-01     4.66010004e-01     0.00000000e+00    
           5.33852994e-01     5.34618974e-01     0.00000000e+00    
           5.21338999e-01     5.13502657e-01     0.00000000e+00    
           5.20626605e-01     5.15222490e-01     0.00000000e+00    
           5.19493401e-01     5.16699374e-01     0.00000000e+00    
           5.18016517e-01     5.17832637e-01     0.00000000e+00    
           5.16296625e-01     5.18545032e-01     0.00000000e+00    
           5.14451027e-01     5.18787980e-01     0.00000000e+00    
           5.12605369e-01     5.18545032e-01     0.00000000e+00    
           5.10885477e-01     5.17832637e-01     0.00000000e+00    
           5.09408593e-01     5.16699374e-01     0.00000000e+00    
           5.08275390e-01     5.15222490e-01     0.00000000e+00    
           5.07562995e-01     5.13502657e-01     0.00000000e+00    
           5.07562995e-01     5.09811342e-01     0.00000000e+00    
           5.08275390e-01     5.08091509e-01     0.00000000e+00    
           5.09408593e-01     5.06614625e-01     0.00000000e+00    
           5.10885477e-01     5.05481362e-01     0.00000000e+00    
           5.12605369e-01     5.04768968e-01     0.00000000e+00    
           5.14451027e-01     5.04526019e-01     0.00000000e+00    
           5.16296625e-01     5.04768968e-01     0.00000000e+00    
           5.18016517e-01     5.05481362e-01     0.00000000e+00    
           5.19493401e-01     5.06614625e-01     0.00000000e+00    
           5.20626605e-01     5.08091509e-01     0.00000000e+00    
           5.21338999e-01     5.09811342e-01     0.00000000e+00    
           4.66931671e-01     5.04409373e-01     0.00000000e+00    
           4.68693614e-01     5.04328012e-01     0.00000000e+00    
           4.70421344e-01     5.04682958e-01     0.00000000e+00    
           4.72008497e-01     5.05452335e-01     0.00000000e+00    
           4.73357379e-01     5.06588817e-01     0.00000000e+00    
           4.74384934e-01     5.08022368e-01     0.00000000e+00    
           4.75027919e-01     5.09664834e-01     0.00000000e+00    
           4.75028187e-01     5.13165236e-01     0.00000000e+00    
           4.74385172e-01     5.14807761e-01     0.00000000e+00    
           4.73357558e-01     5.16241372e-01     0.00000000e+00    
           4.72008646e-01     5.17377913e-01     0.00000000e+00    
           4.70421433e-01     5.18147290e-01     0.00000000e+00    
           4.68693614e-01     5.18502235e-01     0.00000000e+00    
           4.66931641e-01     5.18420875e-01     0.00000000e+00    
           5.32303810e-01     5.16964078e-01     0.00000000e+00    
           5.31043947e-01     5.15658796e-01     0.00000000e+00    
           5.30155540e-01     5.14077127e-01     0.00000000e+00    
           5.29696345e-01     5.12322068e-01     0.00000000e+00    
           5.29696345e-01     5.10507941e-01     0.00000000e+00    
           5.30155540e-01     5.08752882e-01     0.00000000e+00    
           5.31043947e-01     5.07171214e-01     0.00000000e+00    
           5.32303810e-01     5.05865932e-01     0.00000000e+00    
           4.68517244e-01     5.32760799e-01     0.00000000e+00    
           4.68509018e-01     5.30844629e-01     0.00000000e+00    
           4.68960851e-01     5.28982460e-01     0.00000000e+00    
           4.69846308e-01     5.27283132e-01     0.00000000e+00    
           4.71113682e-01     5.25845945e-01     0.00000000e+00    
           4.72688884e-01     5.24754822e-01     0.00000000e+00    
           4.74479854e-01     5.24073541e-01     0.00000000e+00    
           4.78284091e-01     5.24073601e-01     0.00000000e+00    
           4.80075032e-01     5.24754822e-01     0.00000000e+00    
           4.81650203e-01     5.25845885e-01     0.00000000e+00    
           4.82917547e-01     5.27283013e-01     0.00000000e+00    
           4.83803004e-01     5.28982282e-01     0.00000000e+00    
           4.84254897e-01     5.30844331e-01     0.00000000e+00    
           4.84246761e-01     5.32760441e-01     0.00000000e+00    
           4.82887864e-01     4.67691004e-01     0.00000000e+00    
           4.81620818e-01     4.69110936e-01     0.00000000e+00    
           4.80051905e-01     4.70188022e-01     0.00000000e+00    
           4.78271484e-01     4.70860153e-01     0.00000000e+00    
           4.76382166e-01     4.71088618e-01     0.00000000e+00    
           4.74492878e-01     4.70860243e-01     0.00000000e+00    
           4.72712427e-01     4.70188200e-01     0.00000000e+00    
           4.71143454e-01     4.69111174e-01     0.00000000e+00    
           4.69876349e-01     4.67691302e-01     0.00000000e+00    
           4.88103986e-01     5.33086061e-01     0.00000000e+00    
           4.87431526e-01     5.31323195e-01     0.00000000e+00    
           4.87231195e-01     5.29447019e-01     0.00000000e+00    
           4.87516224e-01     5.27581930e-01     0.00000000e+00    
           4.88267750e-01     5.25851250e-01     0.00000000e+00    
           4.89436030e-01     5.24369657e-01     0.00000000e+00    
           4.90943670e-01     5.23235261e-01     0.00000000e+00    
           4.92690891e-01     5.22523046e-01     0.00000000e+00    
           4.96432930e-01     5.22523701e-01     0.00000000e+00    
           4.98180002e-01     5.23235798e-01     0.00000000e+00    
           4.99687493e-01     5.24370134e-01     0.00000000e+00    
           5.00855684e-01     5.25851607e-01     0.00000000e+00    
           5.01607120e-01     5.27582109e-01     0.00000000e+00    
           5.01892149e-01     5.29447079e-01     0.00000000e+00    
           5.01691818e-01     5.31323016e-01     0.00000000e+00    
           5.01019418e-01     5.33085763e-01     0.00000000e+00    
           4.98371124e-01     4.67269689e-01     0.00000000e+00    
           4.96539861e-01     4.68064904e-01     0.00000000e+00    
           4.94562000e-01     4.68336672e-01     0.00000000e+00    
           4.92584139e-01     4.68064904e-01     0.00000000e+00    
           4.90752876e-01     4.67269689e-01     0.00000000e+00    
           5.32269001e-01     4.75995690e-01     0.00000000e+00    
           5.31541944e-01     4.77750987e-01     0.00000000e+00    
           5.30385315e-01     4.79258329e-01     0.00000000e+00    
           5.28877974e-01     4.80414927e-01     0.00000000e+00    
[...]
      <PointData>
        <DataArray type="Float32" Name="Displacement" NumberOfComponents="3">
           4.49529151e-04     3.91761772e-04     0.00000000e+00    
           4.40750795e-04     4.29127918e-04     0.00000000e+00    
           2.17456458e-04     4.25887702e-04     0.00000000e+00    
           1.83088719e-04     4.08092776e-04     0.00000000e+00    
           2.08618236e-04     3.97492928e-04     0.00000000e+00    
           4.83088719e-04     4.08092776e-04     0.00000000e+00    
           5.17456443e-04     4.25887702e-04     0.00000000e+00    
           3.54812073e-04     5.68064337e-04     0.00000000e+00    
           3.45592503e-04     6.16055739e-04     0.00000000e+00    
           3.12077929e-04     5.79587766e-04     0.00000000e+00    
           4.55925037e-05     1.60557211e-05     0.00000000e+00    
           5.48120770e-05    -3.19356441e-05     0.00000000e+00    
           4.08923021e-04     5.38708700e-04     0.00000000e+00    
           4.01422993e-04     5.61059220e-04     0.00000000e+00    
           3.73966672e-04     5.37397165e-04     0.00000000e+00    
           1.01422986e-04    -3.89408087e-05     0.00000000e+00    
           1.08923021e-04    -6.12913209e-05     0.00000000e+00    
           3.39343853e-04     8.83265748e-05     0.00000000e+00    
           3.27511138e-04     1.29868364e-04     0.00000000e+00    
           5.32423379e-04     5.00408642e-04     0.00000000e+00    
           5.58440341e-04     5.14413055e-04     0.00000000e+00    
           5.35160594e-04     5.39271685e-04     0.00000000e+00    
           2.58440356e-04     5.14413055e-04     0.00000000e+00    
           2.32423379e-04     5.00408642e-04     0.00000000e+00    
           3.01794207e-04     4.53310582e-04     0.00000000e+00    
           2.91224103e-04     4.96714376e-04     0.00000000e+00    
           4.95661749e-04     5.21340524e-04     0.00000000e+00    
           4.83846408e-04     5.34361694e-04     0.00000000e+00    
           2.45648873e-04     1.97304602e-04     0.00000000e+00    
           2.30946607e-04     1.96951558e-04     0.00000000e+00    
           1.11971654e-04     1.29864144e-04     0.00000000e+00    
           8.76327540e-05     1.20680190e-04     0.00000000e+00    
           1.12326466e-04     9.72896596e-05     0.00000000e+00    
           3.87632754e-04     1.20680190e-04     0.00000000e+00    
           4.11971647e-04     1.29864144e-04     0.00000000e+00    
           1.87971367e-04     2.84463807e-04     0.00000000e+00    
           1.77135007e-04     3.04526184e-04     0.00000000e+00    
           1.61868709e-04     1.18810465e-04     0.00000000e+00    
           1.45712969e-04     1.17813106e-04     0.00000000e+00    
           2.91144388e-04     2.52567348e-04     0.00000000e+00    
           2.77614745e-04     2.88879848e-04     0.00000000e+00    
           4.38299612e-04     3.34838871e-04     0.00000000e+00    
           4.26057552e-04     3.64790321e-04     0.00000000e+00    
           2.51650752e-04     3.01039021e-04     0.00000000e+00    
           2.37056112e-04     3.34900804e-04     0.00000000e+00    
           3.48725240e-04     2.17750930e-04     0.00000000e+00    
           3.35012708e-04     2.38850858e-04     0.00000000e+00    
           3.00000014e-04     6.00000028e-04     0.00000000e+00    
           0.00000000e+00     0.00000000e+00     0.00000000e+00    
           3.00000014e-04     0.00000000e+00     0.00000000e+00    
           6.00000028e-04     6.00000028e-04     0.00000000e+00    
           4.54831927e-04     3.95408977e-04     0.00000000e+00    
           4.59944829e-04     3.99508805e-04     0.00000000e+00    
           4.63969278e-04     4.04278806e-04     0.00000000e+00    
           4.66470316e-04     4.09319880e-04     0.00000000e+00    
           4.67258855e-04     4.14981099e-04     0.00000000e+00    
           4.66548052e-04     4.20623284e-04     0.00000000e+00    
           4.64995712e-04     4.25343780e-04     0.00000000e+00    
           4.62192664e-04     4.28694359e-04     0.00000000e+00    
           4.57803719e-04     4.30659042e-04     0.00000000e+00    
           4.52435197e-04     4.31226159e-04     0.00000000e+00    
           4.46680235e-04     4.30794345e-04     0.00000000e+00    
           4.35011054e-04     4.26072831e-04     0.00000000e+00    
           4.29866108e-04     4.22360230e-04     0.00000000e+00    
           4.25684470e-04     4.18000040e-04     0.00000000e+00    
           4.22763667e-04     4.13354370e-04     0.00000000e+00    
           4.21710807e-04     4.08354535e-04     0.00000000e+00    
           4.22601122e-04     4.03419544e-04     0.00000000e+00    
           4.25073231e-04     3.98600445e-04     0.00000000e+00    
           4.29313106e-04     3.93547758e-04     0.00000000e+00    
           4.34498012e-04     3.89600726e-04     0.00000000e+00    
           4.39094292e-04     3.88284534e-04     0.00000000e+00    
           4.43820405e-04     3.89356719e-04     0.00000000e+00    
           1.84410514e-04     4.04015038e-04     0.00000000e+00    
           1.86359670e-04     4.00247343e-04     0.00000000e+00    
           1.88398597e-04     3.96859599e-04     0.00000000e+00    
           1.91299347e-04     3.94685048e-04     0.00000000e+00    
           1.95010871e-04     3.94040893e-04     0.00000000e+00    
           1.99395407e-04     3.94271774e-04     0.00000000e+00    
           2.03975564e-04     3.95651674e-04     0.00000000e+00    
           2.12823885e-04     3.99718934e-04     0.00000000e+00    
           2.16365253e-04     4.02203295e-04     0.00000000e+00    
           2.18946952e-04     4.05382802e-04     0.00000000e+00    
           2.20665766e-04     4.09026310e-04     0.00000000e+00    
           2.21578186e-04     4.13076516e-04     0.00000000e+00    
           2.21362105e-04     4.17271687e-04     0.00000000e+00    
           2.19779919e-04     4.21593111e-04     0.00000000e+00    
           5.14310668e-04     4.28861793e-04     0.00000000e+00    
           5.10422688e-04     4.30099579e-04     0.00000000e+00    
           5.05661534e-04     4.28905769e-04     0.00000000e+00    
           5.00488793e-04     4.26813844e-04     0.00000000e+00    
           4.95503424e-04     4.23446996e-04     0.00000000e+00    
           4.90586448e-04     4.19895863e-04     0.00000000e+00    
           4.86454170e-04     4.16339171e-04     0.00000000e+00    
           4.84027754e-04     4.12155263e-04     0.00000000e+00    
           3.38047044e-04     6.14582794e-04     0.00000000e+00    
           3.30961484e-04     6.12019678e-04     0.00000000e+00    
           3.24562337e-04     6.08727627e-04     0.00000000e+00    
           3.19277868e-04     6.04438072e-04     0.00000000e+00    
           3.15345766e-04     5.99100604e-04     0.00000000e+00    
           3.12710734e-04     5.93020290e-04     0.00000000e+00    
           3.11538985e-04     5.86437236e-04     0.00000000e+00    
           3.14637058e-04     5.72501565e-04     0.00000000e+00    
           3.18200444e-04     5.66604256e-04     0.00000000e+00    
           3.22723412e-04     5.62564295e-04     0.00000000e+00    
           3.28431721e-04     5.60484419e-04     0.00000000e+00    
           3.34987155e-04     5.60309156e-04     0.00000000e+00    
           3.41685809e-04     5.61463530e-04     0.00000000e+00    
           3.48416594e-04     5.63850626e-04     0.00000000e+00    
           6.06463254e-05    -2.66624611e-05     0.00000000e+00    
           6.54174582e-05    -2.05002361e-05     0.00000000e+00    
           6.86183121e-05    -1.39495642e-05     0.00000000e+00    
           6.97869618e-05    -7.17356625e-06     0.00000000e+00    
           6.90009911e-05    -5.62883749e-08     0.00000000e+00    
           6.69291258e-05     6.42771874e-06     0.00000000e+00    
           6.36306722e-05     1.14370368e-05     0.00000000e+00    
           5.88606381e-05     1.45823378e-05     0.00000000e+00    
           5.24947172e-05     1.59806550e-05     0.00000000e+00    
           3.96734831e-04     5.61367429e-04     0.00000000e+00    
           3.91819107e-04     5.60497807e-04     0.00000000e+00    
           3.86894913e-04     5.58642205e-04     0.00000000e+00    
           3.82065977e-04     5.55337174e-04     0.00000000e+00    
           3.77698219e-04     5.51217701e-04     0.00000000e+00    
           3.74359195e-04     5.47394156e-04     0.00000000e+00    
           3.72606650e-04     5.43517584e-04     0.00000000e+00    
           3.72247538e-04     5.40197769e-04     0.00000000e+00    
           3.76709795e-04     5.34583931e-04     0.00000000e+00    
           3.80348094e-04     5.32144622e-04     0.00000000e+00    
           3.84824321e-04     5.30431047e-04     0.00000000e+00    
           3.89789726e-04     5.29392157e-04     0.00000000e+00    
           3.94666597e-04     5.29018347e-04     0.00000000e+00    
           3.99200188e-04     5.29616373e-04     0.00000000e+00    
           4.03025391e-04     5.31495374e-04     0.00000000e+00    
           4.06246516e-04     5.34683291e-04     0.00000000e+00    
           1.10754656e-04    -5.67556526e-05     0.00000000e+00    
           1.11479458e-04    -5.21341171e-05     0.00000000e+00    
           1.10897112e-04    -4.77333961e-05     0.00000000e+00    
           1.08861495e-04    -4.37600938e-05     0.00000000e+00    
           1.05679414e-04    -4.07023836e-05     0.00000000e+00    
           3.45620443e-04     9.08283910e-05     0.00000000e+00    
           3.50313407e-04     9.41981489e-05     0.00000000e+00    
           3.53138224e-04     9.83375066e-05     0.00000000e+00    
           3.54473217e-04     1.03907099e-04     0.00000000e+00    
           3.54722841e-04     1.10326800e-04     0.00000000e+00    
           3.53513809e-04     1.17004456e-04     0.00000000e+00    
           3.51493654e-04     1.23817823e-04     0.00000000e+00    
           3.48283007e-04     1.28821324e-04     0.00000000e+00    
           3.44372063e-04     1.32171510e-04     0.00000000e+00    
           3.39259015e-04     1.33045614e-04     0.00000000e+00    
           3.33400298e-04     1.32267669e-04     0.00000000e+00    
           3.21680564e-04     1.26622966e-04     0.00000000e+00    
           3.16608232e-04     1.22133031e-04     0.00000000e+00    
           3.12470918e-04     1.16911091e-04     0.00000000e+00    
           3.09660565e-04     1.10956513e-04     0.00000000e+00    
           3.08405812e-04     1.04629355e-04     0.00000000e+00    
           3.08565242e-04     9.84904327e-05     0.00000000e+00    
           3.10146075e-04     9.31437462e-05     0.00000000e+00    
           3.13355325e-04     8.90446900e-05     0.00000000e+00    
           3.18429433e-04     8.65893307e-05     0.00000000e+00    
           3.24711291e-04     8.57436971e-05     0.00000000e+00    
           3.31842137e-04     8.62972302e-05     0.00000000e+00    
           5.60587738e-04     5.19043708e-04     0.00000000e+00    
           5.61640540e-04     5.24314179e-04     0.00000000e+00    
           5.61615918e-04     5.29902114e-04     0.00000000e+00    
           5.60769637e-04     5.34777297e-04     0.00000000e+00    
           5.58868691e-04     5.38680295e-04     0.00000000e+00    
           5.55243110e-04     5.41265588e-04     0.00000000e+00    
           5.50427299e-04     5.41934802e-04     0.00000000e+00    
           5.45257819e-04     5.41717862e-04     0.00000000e+00    
           5.39990782e-04     5.40838111e-04     0.00000000e+00    
           5.30651829e-04     5.36529697e-04     0.00000000e+00    
           5.26226941e-04     5.32966689e-04     0.00000000e+00    
           5.22626447e-04     5.28886623e-04     0.00000000e+00    
           5.20223461e-04     5.24686417e-04     0.00000000e+00    
           5.19199064e-04     5.20208327e-04     0.00000000e+00    
           5.19651629e-04     5.15433378e-04     0.00000000e+00    
           5.21437323e-04     5.10371814e-04     0.00000000e+00    
           5.24212897e-04     5.05104603e-04     0.00000000e+00    
           5.27960306e-04     5.01759583e-04     0.00000000e+00    
           2.37233413e-04     5.01062663e-04     0.00000000e+00    
           2.42212365e-04     5.02720184e-04     0.00000000e+00    
           2.47162039e-04     5.05060598e-04     0.00000000e+00    
           2.51599762e-04     5.08040714e-04     0.00000000e+00    
           2.55455874e-04     5.10999700e-04     0.00000000e+00    
           3.08163668e-04     4.56738373e-04     0.00000000e+00    
           3.14073986e-04     4.61648713e-04     0.00000000e+00    
           3.19389859e-04     4.66428377e-04     0.00000000e+00    
           3.22962500e-04     4.71848034e-04     0.00000000e+00    
           3.24678025e-04     4.77384194e-04     0.00000000e+00    
           3.23958084e-04     4.82683419e-04     0.00000000e+00    
           3.21727101e-04     4.88347956e-04     0.00000000e+00    
           3.18456383e-04     4.93918196e-04     0.00000000e+00    
           3.14452540e-04     4.97928704e-04     0.00000000e+00    
           3.09755385e-04     5.00255032e-04     0.00000000e+00    
           3.03717970e-04     5.00428607e-04     0.00000000e+00    
           2.97523016e-04     4.98790643e-04     0.00000000e+00    
           2.85355432e-04     4.93644795e-04     0.00000000e+00    
           2.80559936e-04     4.90160601e-04     0.00000000e+00    
           2.76895327e-04     4.85956902e-04     0.00000000e+00    
           2.74435180e-04     4.80586226e-04     0.00000000e+00    
           2.73105747e-04     4.74513683e-04     0.00000000e+00    
           2.73037032e-04     4.68009792e-04     0.00000000e+00    
           2.73815123e-04     4.62155382e-04     0.00000000e+00    
           2.75493279e-04     4.57229849e-04     0.00000000e+00    
           2.78795487e-04     4.53682849e-04     0.00000000e+00    
           2.83481029e-04     4.51678352e-04     0.00000000e+00    
           2.89157324e-04     4.50933963e-04     0.00000000e+00    
           2.95400474e-04     4.51441738e-04     0.00000000e+00    
           4.97431320e-04     5.23442577e-04     0.00000000e+00    
           4.99007700e-04     5.26005635e-04     0.00000000e+00    
           4.99972084e-04     5.28569974e-04     0.00000000e+00    
           5.00061200e-04     5.30864578e-04     0.00000000e+00    
           4.99168003e-04     5.32932056e-04     0.00000000e+00    
           4.97461529e-04     5.34644758e-04     0.00000000e+00    
           4.95063898e-04     5.35788015e-04     0.00000000e+00    
           4.92192805e-04     5.36189938e-04     0.00000000e+00    
           4.88966180e-04     5.36003325e-04     0.00000000e+00    
           4.86026111e-04     5.35287487e-04     0.00000000e+00    
           4.82406787e-04     5.32845268e-04     0.00000000e+00    
           4.81404364e-04     5.30472142e-04     0.00000000e+00    
           4.80887451e-04     5.27586730e-04     0.00000000e+00    
           4.81068040e-04     5.24241361e-04     0.00000000e+00    
           4.81741969e-04     5.20727481e-04     0.00000000e+00    
           4.82963864e-04     5.17797016e-04     0.00000000e+00    
           4.84719436e-04     5.16260043e-04     0.00000000e+00    
           4.87494748e-04     5.16406377e-04     0.00000000e+00    
           4.90343082e-04     5.17976005e-04     0.00000000e+00    
           4.93255560e-04     5.19706344e-04     0.00000000e+00    
           2.47417047e-04     1.99062633e-04     0.00000000e+00    
           2.47839693e-04     2.00411931e-04     0.00000000e+00    
           2.47165590e-04     2.02197523e-04     0.00000000e+00    
           2.45914503e-04     2.04518597e-04     0.00000000e+00    
           2.44832452e-04     2.06586687e-04     0.00000000e+00    
           2.43585266e-04     2.07397781e-04     0.00000000e+00    
           2.42117661e-04     2.07025194e-04     0.00000000e+00    
           2.40126130e-04     2.05566466e-04     0.00000000e+00    
           2.37488086e-04     2.03501448e-04     0.00000000e+00    
           2.35125204e-04     2.01140094e-04     0.00000000e+00    
           2.32793740e-04     1.98879192e-04     0.00000000e+00    
           2.29594501e-04     1.95786852e-04     0.00000000e+00    
           2.29145808e-04     1.94532957e-04     0.00000000e+00    
           2.29826881e-04     1.93442218e-04     0.00000000e+00    
           2.30856371e-04     1.92470558e-04     0.00000000e+00    
           2.31939688e-04     1.91680971e-04     0.00000000e+00    
           2.33081446e-04     1.91258223e-04     0.00000000e+00    
           2.34662075e-04     1.91185725e-04     0.00000000e+00    
           2.36532520e-04     1.91525280e-04     0.00000000e+00    
           2.38761670e-04     1.92517691e-04     0.00000000e+00    
           2.41053844e-04     1.93866945e-04     0.00000000e+00    
           2.43391230e-04     1.95642599e-04     0.00000000e+00    
           8.64382746e-05     1.17122145e-04     0.00000000e+00    
           8.57444538e-05     1.12513080e-04     0.00000000e+00    
           8.59752763e-05     1.07405358e-04     0.00000000e+00    
           8.71395896e-05     1.02060352e-04     0.00000000e+00    
           8.92930038e-05     9.76935116e-05     0.00000000e+00    
           9.24945707e-05     9.46715954e-05     0.00000000e+00    
           9.70608744e-05     9.36465658e-05     0.00000000e+00    
           1.02169426e-04     9.45515421e-05     0.00000000e+00    
           1.07565480e-04     9.57347002e-05     0.00000000e+00    
           1.15791932e-04     9.95526570e-05     0.00000000e+00    
           1.17981981e-04     1.02749342e-04     0.00000000e+00    
           1.20168152e-04     1.07104941e-04     0.00000000e+00    
           1.21865749e-04     1.11866539e-04     0.00000000e+00    
           1.23353224e-04     1.16474279e-04     0.00000000e+00    
           1.23728460e-04     1.20685094e-04     0.00000000e+00    
           1.22777812e-04     1.24260871e-04     0.00000000e+00    
           1.20387958e-04     1.27086736e-04     0.00000000e+00    
           1.16658099e-04     1.28984873e-04     0.00000000e+00    
           4.06646810e-04     1.29577864e-04     0.00000000e+00    
           4.00713965e-04     1.27992462e-04     0.00000000e+00    
           3.95098788e-04     1.26170460e-04     0.00000000e+00    
           3.90581961e-04     1.23766498e-04     0.00000000e+00    
           1.91487285e-04     2.86786002e-04     0.00000000e+00    
           1.93651635e-04     2.89008749e-04     0.00000000e+00    
           1.94397246e-04     2.91609642e-04     0.00000000e+00    
           1.94716034e-04     2.94767815e-04     0.00000000e+00    
           1.94332606e-04     2.98313040e-04     0.00000000e+00    
           1.93177693e-04     3.01920605e-04     0.00000000e+00    
           1.91589395e-04     3.05162452e-04     0.00000000e+00    
           1.89429542e-04     3.07231210e-04     0.00000000e+00    
           1.86579608e-04     3.07702605e-04     0.00000000e+00    
           1.83370590e-04     3.07333277e-04     0.00000000e+00    
           1.80151779e-04     3.06297879e-04     0.00000000e+00    
           1.74367495e-04     3.01900553e-04     0.00000000e+00    
           1.71963999e-04     2.98346684e-04     0.00000000e+00    
           1.70218846e-04     2.94294383e-04     0.00000000e+00    
           1.68962419e-04     2.90190597e-04     0.00000000e+00    
           1.68322120e-04     2.86478724e-04     0.00000000e+00    
           1.68418526e-04     2.83338450e-04     0.00000000e+00    
           1.69478342e-04     2.81028391e-04     0.00000000e+00    
           1.72066415e-04     2.79667787e-04     0.00000000e+00    
           1.75528694e-04     2.79307220e-04     0.00000000e+00    