<?xml version="1.0"?>
<VTKFile type="UnstructuredGrid" version="0.1">
  <UnstructuredGrid>
    <Piece NumberOfPoints="1034" NumberOfCells="1614">
      <Points>
        <DataArray type="Float32" NumberOfComponents="3">
           5.21582007e-01     5.11657000e-01     0.00000000e+00    
           5.07319987e-01     5.11657000e-01     0.00000000e+00    
           4.65243995e-01     5.17907977e-01     0.00000000e+00    
           4.65243995e-01     5.04921973e-01     0.00000000e+00    
           4.75246996e-01     5.11415005e-01     0.00000000e+00    
           5.33852994e-01     5.04921973e-01     0.00000000e+00    
           5.33852994e-01     5.17907977e-01     0.00000000e+00    
           4.83779997e-01     5.34618974e-01     0.00000000e+00    
           4.68984991e-01     5.34618974e-01     0.00000000e+00    
           4.76381987e-01     5.23841977e-01     0.00000000e+00    
           4.68984991e-01     4.66010004e-01     0.00000000e+00    
           4.83779997e-01     4.66010004e-01     0.00000000e+00    
           4.99920011e-01     5.34618974e-01     0.00000000e+00    
           4.89203990e-01     5.34618974e-01     0.00000000e+00    
           4.94562000e-01     5.22280991e-01     0.00000000e+00    
           4.89203990e-01     4.66010004e-01     0.00000000e+00    
           4.99920011e-01     4.66010004e-01     0.00000000e+00    
           5.32517016e-01     4.74112004e-01     0.00000000e+00    
           5.17961025e-01     4.74112004e-01     0.00000000e+00    
           5.33852994e-01     5.19801974e-01     0.00000000e+00    
           5.33852994e-01     5.29603004e-01     0.00000000e+00    
           5.19536972e-01     5.24702013e-01     0.00000000e+00    
           4.65243995e-01     5.29603004e-01     0.00000000e+00    
           4.65243995e-01     5.19801974e-01     0.00000000e+00    
           4.92487997e-01     5.17117977e-01     0.00000000e+00    
           4.76904988e-01     5.17117977e-01     0.00000000e+00    
           5.17996013e-01     5.27033985e-01     0.00000000e+00    
           5.04473984e-01     5.27033985e-01     0.00000000e+00    
           5.08446991e-01     4.83435005e-01     0.00000000e+00    
           4.94414002e-01     4.83435005e-01     0.00000000e+00    
           4.65243995e-01     4.83101994e-01     0.00000000e+00    
           4.65243995e-01     4.74415004e-01     0.00000000e+00    
           4.78336990e-01     4.78758007e-01     0.00000000e+00    
           5.33852994e-01     4.74415004e-01     0.00000000e+00    
           5.33852994e-01     4.83101994e-01     0.00000000e+00    
           4.80668008e-01     4.95810986e-01     0.00000000e+00    
           4.66084987e-01     4.95810986e-01     0.00000000e+00    
           4.93930012e-01     4.79214013e-01     0.00000000e+00    
           4.78967011e-01     4.79214013e-01     0.00000000e+00    
           5.09284973e-01     4.97658014e-01     0.00000000e+00    
           4.95503992e-01     4.97658014e-01     0.00000000e+00    
           5.33011973e-01     5.01751006e-01     0.00000000e+00    
           5.17829001e-01     5.01751006e-01     0.00000000e+00    
           4.95451003e-01     5.00564992e-01     0.00000000e+00    
           4.80922014e-01     5.00564992e-01     0.00000000e+00    
           5.25367022e-01     4.88312006e-01     0.00000000e+00    
           5.09521008e-01     4.88312006e-01     0.00000000e+00    
           4.65243995e-01     5.34618974e-01     0.00000000e+00    
           4.65243995e-01     4.66010004e-01     0.00000000e+00    
           5.33852994e-01     4.66010004e-01     0.00000000e+00    
           5.33852994e-01     5.34618974e-01     0.00000000e+00    
           5.21338999e-01     5.13502657e-01     0.00000000e+00    
           5.20626605e-01     5.15222490e-01     0.00000000e+00    
           5.19493401e-01     5.16699374e-01     0.00000000e+00    
           5.18016517e-01     5.17832637e-01     0.00000000e+00    
           5.16296625e-01     5.18545032e-01     0.00000000e+00    
           5.14451027e-01     5.18787980e-01     0.00000000e+00    
           5.12605369e-01     5.18545032e-01     0.00000000e+00    
           5.10885477e-01     5.17832637e-01     0.00000000e+00    
           5.09408593e-01     5.16699374e-01     0.00000000e+00    
           5.08275390e-01     5.15222490e-01     0.00000000e+00    
           5.07562995e-01     5.13502657e-01     0.00000000e+00    
           5.07562995e-01     5.09811342e-01     0.00000000e+00    
           5.08275390e-01     5.08091509e-01     0.00000000e+00    
           5.09408593e-01     5.06614625e-01     0.00000000e+00    
           5.10885477e-01     5.05481362e-01     0.00000000e+00    
           5.12605369e-01     5.04768968e-01     0.00000000e+00    
           5.14451027e-01     5.04526019e-01     0.00000000e+00    
           5.16296625e-01     5.04768968e-01     0.00000000e+00    
           5.18016517e-01     5.05481362e-01     0.00000000e+00    
           5.19493401e-01     5.06614625e-01     0.00000000e+00    
           5.20626605e-01     5.08091509e-01     0.00000000e+00    
           5.21338999e-01     5.09811342e-01     0.00000000e+00    
           4.66931671e-01     5.04409373e-01     0.00000000e+00    
           4.68693614e-01     5.04328012e-01     0.00000000e+00    
           4.70421344e-01     5.04682958e-01     0.00000000e+00    
           4.72008497e-01     5.05452335e-01     0.00000000e+00    
           4.73357379e-01     5.06588817e-01     0.00000000e+00    
           4.74384934e-01     5.08022368e-01     0.00000000e+00    
           4.75027919e-01     5.09664834e-01     0.00000000e+00    
           4.75028187e-01     5.13165236e-01     0.00000000e+00    
           4.74385172e-01     5.14807761e-01     0.00000000e+00    
           4.73357558e-01     5.16241372e-01     0.00000000e+00    
           4.72008646e-01     5.17377913e-01     0.00000000e+00    
           4.70421433e-01     5.18147290e-01     0.00000000e+00    
           4.68693614e-01     5.18502235e-01     0.00000000e+00    
           4.66931641e-01     5.18420875e-01     0.00000000e+00    
           5.32303810e-01     5.16964078e-01     0.00000000e+00    
           5.31043947e-01     5.15658796e-01     0.00000000e+00    
           5.30155540e-01     5.14077127e-01     0.00000000e+00    
           5.29696345e-01     5.12322068e-01     0.00000000e+00    
           5.29696345e-01     5.10507941e-01     0.00000000e+00    
           5.30155540e-01     5.08752882e-01     0.00000000e+00    
           5.31043947e-01     5.07171214e-01     0.00000000e+00    
           5.32303810e-01     5.05865932e-01     0.00000000e+00    
           4.68517244e-01     5.32760799e-01     0.00000000e+00    
           4.68509018e-01     5.30844629e-01     0.00000000e+00    
           4.68960851e-01     5.28982460e-01     0.00000000e+00    
           4.69846308e-01     5.27283132e-01     0.00000000e+00    
           4.71113682e-01     5.25845945e-01     0.00000000e+00    
           4.72688884e-01     5.24754822e-01     0.00000000e+00    
           4.74479854e-01     5.24073541e-01     0.00000000e+00    
           4.78284091e-01     5.24073601e-01     0.00000000e+00    
           4.80075032e-01     5.24754822e-01     0.00000000e+00    
           4.81650203e-01     5.25845885e-01     0.00000000e+00    
           4.82917547e-01     5.27283013e-01     0.00000000e+00    
           4.83803004e-01     5.28982282e-01     0.00000000e+00    
           4.84254897e-01     5.30844331e-01     0.00000000e+00    
           4.84246761e-01     5.32760441e-01     0.00000000e+00    
           4.82887864e-01     4.67691004e-01     0.00000000e+00    
           4.81620818e-01     4.69110936e-01     0.00000000e+00    
           4.80051905e-01     4.70188022e-01     0.00000000e+00    
           4.78271484e-01     4.70860153e-01     0.00000000e+00    
           4.76382166e-01     4.71088618e-01     0.00000000e+00    
           4.74492878e-01     4.70860243e-01     0.00000000e+00    
           4.72712427e-01     4.70188200e-01     0.00000000e+00    
           4.71143454e-01     4.69111174e-01     0.00000000e+00    
           4.69876349e-01     4.67691302e-01     0.00000000e+00    
           4.88103986e-01     5.33086061e-01     0.00000000e+00    
           4.87431526e-01     5.31323195e-01     0.00000000e+00    
           4.87231195e-01     5.29447019e-01     0.00000000e+00    
           4.87516224e-01     5.27581930e-01     0.00000000e+00    
           4.88267750e-01     5.25851250e-01     0.00000000e+00    
           4.89436030e-01     5.24369657e-01     0.00000000e+00    
           4.90943670e-01     5.23235261e-01     0.00000000e+00    
           4.92690891e-01     5.22523046e-01     0.00000000e+00    
           4.96432930e-01     5.22523701e-01     0.00000000e+00    
           4.98180002e-01     5.23235798e-01     0.00000000e+00    
           4.99687493e-01     5.24370134e-01     0.00000000e+00    
           5.00855684e-01     5.25851607e-01     0.00000000e+00    
           5.01607120e-01     5.27582109e-01     0.00000000e+00    
           5.01892149e-01     5.29447079e-01     0.00000000e+00    
           5.01691818e-01     5.31323016e-01     0.00000000e+00    
           5.01019418e-01     5.33085763e-01     0.00000000e+00    
           4.98371124e-01     4.67269689e-01     0.00000000e+00    
           4.96539861e-01     4.68064904e-01     0.00000000e+00    
           4.94562000e-01     4.68336672e-01     0.00000000e+00    
           4.92584139e-01     4.68064904e-01     0.00000000e+00    
           4.90752876e-01     4.67269689e-01     0.00000000e+00    
           5.32269001e-01     4.75995690e-01     0.00000000e+00    
           5.31541944e-01     4.77750987e-01     0.00000000e+00    
           5.30385315e-01     4.79258329e-01     0.00000000e+00    
           5.28877974e-01     4.80414927e-01     0.00000000e+00    
[...]
      <PointData>
        <DataArray type="Float32" Name="Displacement" NumberOfComponents="3">
           1.81979430e-03     1.72343943e-03     0.00000000e+00    
           1.81285548e-03     2.02762475e-03     0.00000000e+00    
           1.97711680e-03     1.78847951e-03     0.00000000e+00    
           1.71866582e-03     1.76897028e-03     0.00000000e+00    
           1.85182097e-03     1.59424555e-03     0.00000000e+00    
           1.71866582e-03     1.76897028e-03     0.00000000e+00    
           1.97711680e-03     1.78847951e-03     0.00000000e+00    
           2.38042884e-03     2.21395702e-03     0.00000000e+00    
           2.37639667e-03     2.41100858e-03     0.00000000e+00    
           2.22562719e-03     2.29495065e-03     0.00000000e+00    
           2.63966595e-05     6.10085190e-05     0.00000000e+00    
           3.04289370e-05    -1.36043047e-04     0.00000000e+00    
           2.34273123e-03     2.30120169e-03     0.00000000e+00    
           2.33835308e-03     2.40160851e-03     0.00000000e+00    
           2.21247459e-03     2.33190437e-03     0.00000000e+00    
          -1.16468891e-05     5.16084001e-05     0.00000000e+00    
          -7.26881581e-06    -4.87982179e-05     0.00000000e+00    
           8.01457849e-04     5.18511632e-04     0.00000000e+00    
           7.92000792e-04     8.40103836e-04     0.00000000e+00    
           2.14366312e-03     1.96424057e-03     0.00000000e+00    
           2.30629067e-03     1.98219251e-03     0.00000000e+00    
           2.22485838e-03     2.19577760e-03     0.00000000e+00    
           2.30629067e-03     1.98219251e-03     0.00000000e+00    
           2.14366312e-03     1.96424057e-03     0.00000000e+00    
           1.99503917e-03     1.84335676e-03     0.00000000e+00    
           1.98664144e-03     2.09238706e-03     0.00000000e+00    
           2.26254365e-03     2.17333878e-03     0.00000000e+00    
           2.26406730e-03     2.31506256e-03     0.00000000e+00    
           1.08607486e-03     9.89865279e-04     0.00000000e+00    
           1.07615441e-03     1.08874496e-03     0.00000000e+00    
           9.74909519e-04     9.11112467e-04     0.00000000e+00    
           9.17201105e-04     8.97654914e-04     0.00000000e+00    
           9.54025134e-04     8.32643243e-04     0.00000000e+00    
           9.17201105e-04     8.97654914e-04     0.00000000e+00    
           9.74909519e-04     9.11112467e-04     0.00000000e+00    
           1.46518287e-03     1.29835191e-03     0.00000000e+00    
           1.46026642e-03     1.43406098e-03     0.00000000e+00    
           9.86864907e-04     8.10591038e-04     0.00000000e+00    
           9.76692419e-04     8.94605124e-04     0.00000000e+00    
           1.48575089e-03     1.28521130e-03     0.00000000e+00    
           1.48284296e-03     1.43925298e-03     0.00000000e+00    
           1.58822327e-03     1.45417417e-03     0.00000000e+00    
           1.58275629e-03     1.76759833e-03     0.00000000e+00    
           1.50578714e-03     1.43455446e-03     0.00000000e+00    
           1.50325778e-03     1.52141170e-03     0.00000000e+00    
           1.24292227e-03     9.03017819e-04     0.00000000e+00    
           1.23372546e-03     1.19743310e-03     0.00000000e+00    
           2.34999997e-03     2.34999997e-03     0.00000000e+00    
           0.00000000e+00     0.00000000e+00     0.00000000e+00    
           0.00000000e+00     0.00000000e+00     0.00000000e+00    
           2.34999997e-03     2.34999997e-03     0.00000000e+00    
           1.86064327e-03     1.73231412e-03     0.00000000e+00    
           1.89921539e-03     1.74981914e-03     0.00000000e+00    
           1.93214905e-03     1.77642051e-03     0.00000000e+00    
           1.95662468e-03     1.81005278e-03     0.00000000e+00    
           1.97137985e-03     1.84825191e-03     0.00000000e+00    
           1.97554613e-03     1.88838725e-03     0.00000000e+00    
           1.96933863e-03     1.92769966e-03     0.00000000e+00    
           1.95311720e-03     1.96348969e-03     0.00000000e+00    
           1.92704727e-03     1.99323543e-03     0.00000000e+00    
           1.89262629e-03     2.01417459e-03     0.00000000e+00    
           1.85380271e-03     2.02564243e-03     0.00000000e+00    
           1.77189382e-03     2.01994390e-03     0.00000000e+00    
           1.73356174e-03     2.00283527e-03     0.00000000e+00    
           1.70083437e-03     1.97681622e-03     0.00000000e+00    
           1.67593663e-03     1.94391480e-03     0.00000000e+00    
           1.66044536e-03     1.90634700e-03     0.00000000e+00    
           1.65521633e-03     1.86690770e-03     0.00000000e+00    
           1.66046422e-03     1.82809588e-03     0.00000000e+00    
           1.67624082e-03     1.79180433e-03     0.00000000e+00    
           1.70241273e-03     1.76020863e-03     0.00000000e+00    
           1.73584907e-03     1.73729507e-03     0.00000000e+00    
           1.77653087e-03     1.72511826e-03     0.00000000e+00    
           1.70995027e-03     1.73649855e-03     0.00000000e+00    
           1.70956191e-03     1.70319271e-03     0.00000000e+00    
           1.71726709e-03     1.67124742e-03     0.00000000e+00    
           1.73292647e-03     1.64271169e-03     0.00000000e+00    
           1.75634015e-03     1.61968789e-03     0.00000000e+00    
           1.78562768e-03     1.60355843e-03     0.00000000e+00    
           1.81799801e-03     1.59577001e-03     0.00000000e+00    
           1.88562134e-03     1.60030217e-03     0.00000000e+00    
           1.91741425e-03     1.61375350e-03     0.00000000e+00    
           1.94521633e-03     1.63424411e-03     0.00000000e+00    
           1.96712138e-03     1.66044862e-03     0.00000000e+00    
           1.98184862e-03     1.69101520e-03     0.00000000e+00    
           1.98866311e-03     1.72391359e-03     0.00000000e+00    
           1.98686006e-03     1.75725843e-03     0.00000000e+00    
           1.95799884e-03     1.81711849e-03     0.00000000e+00    
           1.92998222e-03     1.83944183e-03     0.00000000e+00    
           1.89660641e-03     1.85320026e-03     0.00000000e+00    
           1.86124223e-03     1.85828877e-03     0.00000000e+00    
           1.82619062e-03     1.85463182e-03     0.00000000e+00    
           1.79166649e-03     1.84368563e-03     0.00000000e+00    
           1.76081911e-03     1.82520144e-03     0.00000000e+00    
           1.73597375e-03     1.79962465e-03     0.00000000e+00    
           2.34917295e-03     2.41299276e-03     0.00000000e+00    
           2.32258067e-03     2.40962440e-03     0.00000000e+00    
           2.29661074e-03     2.40115123e-03     0.00000000e+00    
           2.27282173e-03     2.38731410e-03     0.00000000e+00    
           2.25274544e-03     2.36867717e-03     0.00000000e+00    
           2.23759096e-03     2.34643277e-03     0.00000000e+00    
           2.22819415e-03     2.32135435e-03     0.00000000e+00    
           2.22965027e-03     2.26910715e-03     0.00000000e+00    
           2.24037841e-03     2.24572467e-03     0.00000000e+00    
           2.25665607e-03     2.22595665e-03     0.00000000e+00    
           2.27794307e-03     2.21108762e-03     0.00000000e+00    
           2.30201031e-03     2.20359233e-03     0.00000000e+00    
           2.32666801e-03     2.20304052e-03     0.00000000e+00    
           2.35323072e-03     2.20584520e-03     0.00000000e+00    
           5.55229672e-05    -1.22637328e-04     0.00000000e+00    
           7.63405187e-05    -1.04077211e-04     0.00000000e+00    
           9.18132573e-05    -8.16884640e-05     0.00000000e+00    
           1.01097881e-04    -5.67143325e-05     0.00000000e+00    
           1.03684943e-04    -3.09015013e-05     0.00000000e+00    
           9.98921969e-05    -5.82396660e-06     0.00000000e+00    
           8.97825885e-05     1.74851448e-05     0.00000000e+00    
           7.41055846e-05     3.73806470e-05     0.00000000e+00    
           5.21238253e-05     5.21558468e-05     0.00000000e+00    
           2.32177461e-03     2.40860484e-03     0.00000000e+00    
           2.30448577e-03     2.40999321e-03     0.00000000e+00    
           2.28661275e-03     2.40769936e-03     0.00000000e+00    
           2.26737862e-03     2.40240549e-03     0.00000000e+00    
           2.24832469e-03     2.39435863e-03     0.00000000e+00    
           2.23265635e-03     2.38196342e-03     0.00000000e+00    
           2.22124741e-03     2.36654491e-03     0.00000000e+00    
           2.21447414e-03     2.34950171e-03     0.00000000e+00    
           2.21513188e-03     2.31500575e-03     0.00000000e+00    
           2.22293241e-03     2.29977444e-03     0.00000000e+00    
           2.23532785e-03     2.28793989e-03     0.00000000e+00    
           2.25092145e-03     2.27991841e-03     0.00000000e+00    
           2.26810644e-03     2.27685459e-03     0.00000000e+00    
           2.28714664e-03     2.27719033e-03     0.00000000e+00    
           2.30716262e-03     2.28165905e-03     0.00000000e+00    
           2.32653436e-03     2.28933245e-03     0.00000000e+00    
           5.63064259e-06    -3.28143324e-05     0.00000000e+00    
           1.31777615e-05    -1.45752128e-05     0.00000000e+00    
           1.51043623e-05     4.36521987e-06     0.00000000e+00    
           1.13951028e-05     2.25724652e-05     0.00000000e+00    
           2.50959329e-06     3.88724438e-05     0.00000000e+00    
           8.44696478e-04     5.26305055e-04     0.00000000e+00    
           8.84591660e-04     5.44518116e-04     0.00000000e+00    
           9.18515841e-04     5.72191842e-04     0.00000000e+00    
           9.44300380e-04     6.06971269e-04     0.00000000e+00    
           9.60407720e-04     6.46977453e-04     0.00000000e+00    
           9.65360668e-04     6.89549488e-04     0.00000000e+00    
           9.59692465e-04     7.31566222e-04     0.00000000e+00    
           9.42268001e-04     7.70160288e-04     0.00000000e+00    
           9.14466451e-04     8.02768860e-04     0.00000000e+00    
           8.77706276e-04     8.26490170e-04     0.00000000e+00    
           8.35273473e-04     8.39130487e-04     0.00000000e+00    
           7.48156628e-04     8.32235615e-04     0.00000000e+00    
           7.07791245e-04     8.13889143e-04     0.00000000e+00    
           6.73306000e-04     7.86281656e-04     0.00000000e+00    
           6.47281588e-04     7.51192681e-04     0.00000000e+00    
           6.31333038e-04     7.10985682e-04     0.00000000e+00    
           6.26535330e-04     6.68539433e-04     0.00000000e+00    
           6.32775715e-04     6.26662164e-04     0.00000000e+00    
           6.50059141e-04     5.88391558e-04     0.00000000e+00    
           6.77866687e-04     5.56359882e-04     0.00000000e+00    
           7.15328148e-04     5.33341663e-04     0.00000000e+00    
           7.57837377e-04     5.20727714e-04     0.00000000e+00    
           2.32864032e-03     2.00595171e-03     0.00000000e+00    
           2.34442228e-03     2.03398825e-03     0.00000000e+00    
           2.35297577e-03     2.06430093e-03     0.00000000e+00    
           2.35400256e-03     2.09562597e-03     0.00000000e+00    
           2.34694756e-03     2.12565809e-03     0.00000000e+00    
           2.33208225e-03     2.15252978e-03     0.00000000e+00    
           2.31006998e-03     2.17400072e-03     0.00000000e+00    
           2.28430261e-03     2.18830700e-03     0.00000000e+00    
           2.25603790e-03     2.19527632e-03     0.00000000e+00    
           2.19126698e-03     2.18983344e-03     0.00000000e+00    
           2.15840153e-03     2.17716256e-03     0.00000000e+00    
           2.13057967e-03     2.15724995e-03     0.00000000e+00    
           2.10893876e-03     2.13185302e-03     0.00000000e+00    
           2.09494308e-03     2.10259622e-03     0.00000000e+00    
           2.08864664e-03     2.07161019e-03     0.00000000e+00    
           2.09046016e-03     2.04030494e-03     0.00000000e+00    
           2.10011727e-03     2.01076898e-03     0.00000000e+00    
           2.11815140e-03     1.98475341e-03     0.00000000e+00    
           2.17062142e-03     1.95231929e-03     0.00000000e+00    
           2.19917647e-03     1.94737525e-03     0.00000000e+00    
           2.22766818e-03     1.94819167e-03     0.00000000e+00    
           2.25554733e-03     1.95470941e-03     0.00000000e+00    
           2.28225021e-03     1.96582195e-03     0.00000000e+00    
           2.02613301e-03     1.85004936e-03     0.00000000e+00    
           2.05570739e-03     1.86294189e-03     0.00000000e+00    
           2.08204403e-03     1.88186520e-03     0.00000000e+00    
           2.10269773e-03     1.90618681e-03     0.00000000e+00    
           2.11678236e-03     1.93419901e-03     0.00000000e+00    
           2.12351023e-03     1.96461403e-03     0.00000000e+00    
           2.12238450e-03     1.99524267e-03     0.00000000e+00    
           2.11395044e-03     2.02444615e-03     0.00000000e+00    
           2.09834194e-03     2.05027615e-03     0.00000000e+00    
           2.07636133e-03     2.07157293e-03     0.00000000e+00    
           2.04822887e-03     2.08603172e-03     0.00000000e+00    
           2.01794854e-03     2.09200964e-03     0.00000000e+00    
           1.95575599e-03     2.08569109e-03     0.00000000e+00    
           1.92672433e-03     2.07281485e-03     0.00000000e+00    
           1.90111040e-03     2.05378910e-03     0.00000000e+00    
           1.88079185e-03     2.02956540e-03     0.00000000e+00    
           1.86678593e-03     2.00160872e-03     0.00000000e+00    
           1.85978482e-03     1.97136565e-03     0.00000000e+00    
           1.86054630e-03     1.94091594e-03     0.00000000e+00    
           1.86838710e-03     1.91188091e-03     0.00000000e+00    
           1.88341830e-03     1.88607315e-03     0.00000000e+00    
           1.90508435e-03     1.86490663e-03     0.00000000e+00    
           1.93284359e-03     1.85033842e-03     0.00000000e+00    
           1.96359050e-03     1.84340763e-03     0.00000000e+00    
           2.28569680e-03     2.17865058e-03     0.00000000e+00    
           2.30755936e-03     2.18918570e-03     0.00000000e+00    
           2.32509826e-03     2.20465939e-03     0.00000000e+00    
           2.33692816e-03     2.22363276e-03     0.00000000e+00    
           2.34258804e-03     2.24443479e-03     0.00000000e+00    
           2.34183506e-03     2.26537418e-03     0.00000000e+00    
           2.33503897e-03     2.28480226e-03     0.00000000e+00    
           2.32213154e-03     2.30110390e-03     0.00000000e+00    
           2.30458635e-03     2.31197826e-03     0.00000000e+00    
           2.28522951e-03     2.31573847e-03     0.00000000e+00    
           2.24180962e-03     2.30931165e-03     0.00000000e+00    
           2.22069188e-03     2.29869224e-03     0.00000000e+00    
           2.20343610e-03     2.28317431e-03     0.00000000e+00    
           2.19162297e-03     2.26409058e-03     0.00000000e+00    
           2.18592514e-03     2.24302267e-03     0.00000000e+00    
           2.18690746e-03     2.22210283e-03     0.00000000e+00    
           2.19346769e-03     2.20301049e-03     0.00000000e+00    
           2.20557023e-03     2.18737428e-03     0.00000000e+00    
           2.22175685e-03     2.17723218e-03     0.00000000e+00    
           2.24036211e-03     2.17306009e-03     0.00000000e+00    
           1.10097602e-03     9.93842492e-04     0.00000000e+00    
           1.11436099e-03     1.00109994e-03     0.00000000e+00    
           1.12550717e-03     1.01092621e-03     0.00000000e+00    
           1.13360269e-03     1.02296832e-03     0.00000000e+00    
           1.13806874e-03     1.03619450e-03     0.00000000e+00    
           1.13901123e-03     1.04980345e-03     0.00000000e+00    
           1.13631529e-03     1.06280332e-03     0.00000000e+00    
           1.13009824e-03     1.07443985e-03     0.00000000e+00    
           1.11891609e-03     1.08357694e-03     0.00000000e+00    
           1.10502448e-03     1.08885998e-03     0.00000000e+00    
           1.09016139e-03     1.09027885e-03     0.00000000e+00    
           1.06209272e-03     1.08485192e-03     0.00000000e+00    
           1.04904734e-03     1.07768888e-03     0.00000000e+00    
           1.03801372e-03     1.06817845e-03     0.00000000e+00    
           1.02983683e-03     1.05638977e-03     0.00000000e+00    
           1.02497858e-03     1.04352948e-03     0.00000000e+00    
           1.02348102e-03     1.02998654e-03     0.00000000e+00    
           1.02598546e-03     1.01664930e-03     0.00000000e+00    
           1.03231205e-03     1.00453163e-03     0.00000000e+00    
           1.04286731e-03     9.95043549e-04     0.00000000e+00    
           1.05663796e-03     9.89045366e-04     0.00000000e+00    
           1.07156404e-03     9.87702399e-04     0.00000000e+00    
           9.09406343e-04     8.89114162e-04     0.00000000e+00    
           9.04144545e-04     8.79452797e-04     0.00000000e+00    
           9.01713793e-04     8.68986594e-04     0.00000000e+00    
           9.02016531e-04     8.58364685e-04     0.00000000e+00    
           9.05150722e-04     8.48626194e-04     0.00000000e+00    
           9.11542738e-04     8.39941145e-04     0.00000000e+00    
           9.20823077e-04     8.33579514e-04     0.00000000e+00    
           9.31895163e-04     8.30909295e-04     0.00000000e+00    
           9.42910148e-04     8.31111742e-04     0.00000000e+00    
           9.65229236e-04     8.36114341e-04     0.00000000e+00    
           9.75134550e-04     8.41655768e-04     0.00000000e+00    
           9.84110287e-04     8.49369506e-04     0.00000000e+00    
           9.91151202e-04     8.58339539e-04     0.00000000e+00    
           9.95930168e-04     8.68441013e-04     0.00000000e+00    
           9.97583033e-04     8.78927356e-04     0.00000000e+00    
           9.96396528e-04     8.89035931e-04     0.00000000e+00    
           9.92362970e-04     8.98350321e-04     0.00000000e+00    
           9.85350809e-04     9.05873196e-04     0.00000000e+00    
           9.63096507e-04     9.12592688e-04     0.00000000e+00    
           9.51381342e-04     9.11247567e-04     0.00000000e+00    
           9.39322228e-04     9.09094932e-04     0.00000000e+00    
           9.27487272e-04     9.04829882e-04     0.00000000e+00    
           1.48292782e-03     1.30372774e-03     0.00000000e+00    
           1.49979698e-03     1.31252664e-03     0.00000000e+00    
           1.51466380e-03     1.32464652e-03     0.00000000e+00    
           1.52638368e-03     1.33995886e-03     0.00000000e+00    
           1.53368176e-03     1.35760789e-03     0.00000000e+00    
           1.53601391e-03     1.37619569e-03     0.00000000e+00    
           1.53335452e-03     1.39413937e-03     0.00000000e+00    
           1.52623968e-03     1.41006126e-03     0.00000000e+00    
           1.51542504e-03     1.42265309e-03     0.00000000e+00    
           1.50066521e-03     1.43085327e-03     0.00000000e+00    
           1.48188148e-03     1.43424142e-03     0.00000000e+00    
           1.43893762e-03     1.42909784e-03     0.00000000e+00    
           1.41999603e-03     1.41943584e-03     0.00000000e+00    
           1.40449929e-03     1.40617660e-03     0.00000000e+00    
           1.39317429e-03     1.39010593e-03     0.00000000e+00    
           1.38655817e-03     1.37233234e-03     0.00000000e+00    
           1.38473010e-03     1.35390460e-03     0.00000000e+00    
           1.38785702e-03     1.33613439e-03     0.00000000e+00    
           1.39614509e-03     1.31998677e-03     0.00000000e+00    
           1.40972470e-03     1.30721217e-03     0.00000000e+00    