<?xml version="1.0"?>
<VTKFile type="UnstructuredGrid" version="0.1">
  <UnstructuredGrid>
    <Piece NumberOfPoints="1034" NumberOfCells="1614">
      <Points>
        <DataArray type="Float32" NumberOfComponents="3">
           5.21582007e-01     5.11657000e-01     0.00000000e+00    
           5.07319987e-01     5.11657000e-01     0.00000000e+00    
           4.65243995e-01     5.17907977e-01     0.00000000e+00    
           4.65243995e-01     5.04921973e-01     0.00000000e+00    
           4.75246996e-01     5.11415005e-01     0.00000000e+00    
           5.33852994e-01     5.04921973e-01     0.00000000e+00    
           5.33852994e-01     5.17907977e-01     0.00000000e+00    
           4.83779997e-01     5.34618974e-01     0.00000000e+00    
           4.68984991e-01     5.34618974e-01     0.00000000e+00    
           4.76381987e-01     5.23841977e-01     0.00000000e+00    
           4.68984991e-01     4.66010004e-01     0.00000000e+00    
           4.83779997e-01     4.66010004e-01     0.00000000e+00    
           4.99920011e-01     5.34618974e-01     0.00000000e+00    
           4.89203990e-01     5.34618974e-01     0.00000000e+00    
           4.94562000e-01     5.22280991e-01     0.00000000e+00    
           4.89203990e-01     4.66010004e-01     0.00000000e+00    
           4.99920011e-01     4.66010004e-01     0.00000000e+00    
           5.32517016e-01     4.74112004e-01     0.00000000e+00    
           5.17961025e-01     4.74112004e-01     0.00000000e+00    
           5.33852994e-01     5.19801974e-01     0.00000000e+00    
           5.33852994e-01     5.29603004e-01     0.00000000e+00    
           5.19536972e-01     5.24702013e-01     0.00000000e+00    
           4.65243995e-01     5.29603004e-01     0.00000000e+00    
           4.65243995e-01     5.19801974e-01     0.00000000e+00    
           4.92487997e-01     5.17117977e-01     0.00000000e+00    
           4.76904988e-01     5.17117977e-01     0.00000000e+00    
           5.17996013e-01     5.27033985e-01     0.00000000e+00    
           5.04473984e-01     5.27033985e-01     0.00000000e+00    
           5.08446991e-01     4.83435005e-01     0.00000000e+00    
           4.94414002e-01     4.83435005e-01     0.00000000e+00    
           4.65243995e-01     4.83101994e-01     0.00000000e+00    
           4.65243995e-01     4.74415004e-01     0.00000000e+00    
           4.78336990e-01     4.78758007e-01     0.00000000e+00    
           5.33852994e-01     4.74415004e-01     0.00000000e+00    
           5.33852994e-01     4.83101994e-01     0.00000000e+00    
           4.80668008e-01     4.95810986e-01     0.00000000e+00    
           4.66084987e-01     4.95810986e-01     0.00000000e+00    
           4.93930012e-01     4.79214013e-01     0.00000000e+00    
           4.78967011e-01     4.79214013e-01     0.00000000e+00    
           5.09284973e-01     4.97658014e-01     0.00000000e+00    
           4.95503992e-01     4.97658014e-01     0.00000000e+00    
           5.33011973e-01     5.01751006e-01     0.00000000e+00    
           5.17829001e-01     5.01751006e-01     0.00000000e+00    
           4.95451003e-01     5.00564992e-01     0.00000000e+00    
           4.80922014e-01     5.00564992e-01     0.00000000e+00    
           5.25367022e-01     4.88312006e-01     0.00000000e+00    
           5.09521008e-01     4.88312006e-01     0.00000000e+00    
           4.65243995e-01     5.34618974e-01     0.00000000e+00    
           4.65243995e-01     4.66010004e-01     0.00000000e+00    
           5.33852994e-01     4.66010004e-01     0.00000000e+00    
           5.33852994e-01     5.34618974e-01     0.00000000e+00    
           5.21338999e-01     5.13502657e-01     0.00000000e+00    
           5.20626605e-01     5.15222490e-01     0.00000000e+00    
           5.19493401e-01     5.16699374e-01     0.00000000e+00    
           5.18016517e-01     5.17832637e-01     0.00000000e+00    
           5.16296625e-01     5.18545032e-01     0.00000000e+00    
           5.14451027e-01     5.18787980e-01     0.00000000e+00    
           5.12605369e-01     5.18545032e-01     0.00000000e+00    
           5.10885477e-01     5.17832637e-01     0.00000000e+00    
           5.09408593e-01     5.16699374e-01     0.00000000e+00    
           5.08275390e-01     5.15222490e-01     0.00000000e+00    
           5.07562995e-01     5.13502657e-01     0.00000000e+00    
           5.07562995e-01     5.09811342e-01     0.00000000e+00    
           5.08275390e-01     5.08091509e-01     0.00000000e+00    
           5.09408593e-01     5.06614625e-01     0.00000000e+00    
           5.10885477e-01     5.05481362e-01     0.00000000e+00    
           5.12605369e-01     5.04768968e-01     0.00000000e+00    
           5.14451027e-01     5.04526019e-01     0.00000000e+00    
           5.16296625e-01     5.04768968e-01     0.00000000e+00    
           5.18016517e-01     5.05481362e-01     0.00000000e+00    
           5.19493401e-01     5.06614625e-01     0.00000000e+00    
           5.20626605e-01     5.08091509e-01     0.00000000e+00    
           5.21338999e-01     5.09811342e-01     0.00000000e+00    
           4.66931671e-01     5.04409373e-01     0.00000000e+00    
           4.68693614e-01     5.04328012e-01     0.00000000e+00    
           4.70421344e-01     5.04682958e-01     0.00000000e+00    
           4.72008497e-01     5.05452335e-01     0.00000000e+00    
           4.73357379e-01     5.06588817e-01     0.00000000e+00    
           4.74384934e-01     5.08022368e-01     0.00000000e+00    
           4.75027919e-01     5.09664834e-01     0.00000000e+00    
           4.75028187e-01     5.13165236e-01     0.00000000e+00    
           4.74385172e-01     5.14807761e-01     0.00000000e+00    
           4.73357558e-01     5.16241372e-01     0.00000000e+00    
           4.72008646e-01     5.17377913e-01     0.00000000e+00    
           4.70421433e-01     5.18147290e-01     0.00000000e+00    
           4.68693614e-01     5.18502235e-01     0.00000000e+00    
           4.66931641e-01     5.18420875e-01     0.00000000e+00    
           5.32303810e-01     5.16964078e-01     0.00000000e+00    
           5.31043947e-01     5.15658796e-01     0.00000000e+00    
           5.30155540e-01     5.14077127e-01     0.00000000e+00    
           5.29696345e-01     5.12322068e-01     0.00000000e+00    
           5.29696345e-01     5.10507941e-01     0.00000000e+00    
           5.30155540e-01     5.08752882e-01     0.00000000e+00    
           5.31043947e-01     5.07171214e-01     0.00000000e+00    
           5.32303810e-01     5.05865932e-01     0.00000000e+00    
           4.68517244e-01     5.32760799e-01     0.00000000e+00    
           4.68509018e-01     5.30844629e-01     0.00000000e+00    
           4.68960851e-01     5.28982460e-01     0.00000000e+00    
           4.69846308e-01     5.27283132e-01     0.00000000e+00    
           4.71113682e-01     5.25845945e-01     0.00000000e+00    
           4.72688884e-01     5.24754822e-01     0.00000000e+00    
           4.74479854e-01     5.24073541e-01     0.00000000e+00    
           4.78284091e-01     5.24073601e-01     0.00000000e+00    
           4.80075032e-01     5.24754822e-01     0.00000000e+00    
           4.81650203e-01     5.25845885e-01     0.00000000e+00    
           4.82917547e-01     5.27283013e-01     0.00000000e+00    
           4.83803004e-01     5.28982282e-01     0.00000000e+00    
           4.84254897e-01     5.30844331e-01     0.00000000e+00    
           4.84246761e-01     5.32760441e-01     0.00000000e+00    
           4.82887864e-01     4.67691004e-01     0.00000000e+00    
           4.81620818e-01     4.69110936e-01     0.00000000e+00    
           4.80051905e-01     4.70188022e-01     0.00000000e+00    
           4.78271484e-01     4.70860153e-01     0.00000000e+00    
           4.76382166e-01     4.71088618e-01     0.00000000e+00    
           4.74492878e-01     4.70860243e-01     0.00000000e+00    
           4.72712427e-01     4.70188200e-01     0.00000000e+00    
           4.71143454e-01     4.69111174e-01     0.00000000e+00    
           4.69876349e-01     4.67691302e-01     0.00000000e+00    
           4.88103986e-01     5.33086061e-01     0.00000000e+00    
           4.87431526e-01     5.31323195e-01     0.00000000e+00    
           4.87231195e-01     5.29447019e-01     0.00000000e+00    
           4.87516224e-01     5.27581930e-01     0.00000000e+00    
           4.88267750e-01     5.25851250e-01     0.00000000e+00    
           4.89436030e-01     5.24369657e-01     0.00000000e+00    
           4.90943670e-01     5.23235261e-01     0.00000000e+00    
           4.92690891e-01     5.22523046e-01     0.00000000e+00    
           4.96432930e-01     5.22523701e-01     0.00000000e+00    
           4.98180002e-01     5.23235798e-01     0.00000000e+00    
           4.99687493e-01     5.24370134e-01     0.00000000e+00    
           5.00855684e-01     5.25851607e-01     0.00000000e+00    
           5.01607120e-01     5.27582109e-01     0.00000000e+00    
           5.01892149e-01     5.29447079e-01     0.00000000e+00    
           5.01691818e-01     5.31323016e-01     0.00000000e+00    
           5.01019418e-01     5.33085763e-01     0.00000000e+00    
           4.98371124e-01     4.67269689e-01     0.00000000e+00    
           4.96539861e-01     4.68064904e-01     0.00000000e+00    
           4.94562000e-01     4.68336672e-01     0.00000000e+00    
           4.92584139e-01     4.68064904e-01     0.00000000e+00    
           4.90752876e-01     4.67269689e-01     0.00000000e+00    
           5.32269001e-01     4.75995690e-01     0.00000000e+00    
           5.31541944e-01     4.77750987e-01     0.00000000e+00    
           5.30385315e-01     4.79258329e-01     0.00000000e+00    
           5.28877974e-01     4.80414927e-01     0.00000000e+00    
[...]
      <PointData>
        <DataArray type="Float32" Name="Displacement" NumberOfComponents="3">
           9.44385945e-04     8.93358199e-04     0.00000000e+00    
           9.39507037e-04     1.08513481e-03     0.00000000e+00    
           1.03828835e-03     9.58637043e-04     0.00000000e+00    
           8.71690339e-04     9.39460180e-04     0.00000000e+00    
           9.58247751e-04     8.35898856e-04     0.00000000e+00    
           8.71690339e-04     9.39460180e-04     0.00000000e+00    
           1.03828835e-03     9.58637043e-04     0.00000000e+00    
           1.31141394e-03     1.21736457e-03     0.00000000e+00    
           1.30941451e-03     1.35229446e-03     0.00000000e+00    
           1.20158202e-03     1.26850186e-03     0.00000000e+00    
           9.41447252e-06     5.22944356e-05     0.00000000e+00    
           1.14139184e-05    -8.26353789e-05     0.00000000e+00    
           1.28175202e-03     1.24876318e-03     0.00000000e+00    
           1.27858855e-03     1.31335820e-03     0.00000000e+00    
           1.19237881e-03     1.26255280e-03     0.00000000e+00    
          -2.14115007e-05     1.33582107e-05     0.00000000e+00    
          -1.82479871e-05    -5.12367951e-05     0.00000000e+00    
           3.13439872e-04     1.87330123e-04     0.00000000e+00    
           3.05680616e-04     3.44533881e-04     0.00000000e+00    
           1.15022936e-03     1.07953802e-03     0.00000000e+00    
           1.25202944e-03     1.09755178e-03     0.00000000e+00    
           1.20243232e-03     1.22132024e-03     0.00000000e+00    
           1.25202944e-03     1.09755178e-03     0.00000000e+00    
           1.15022936e-03     1.07953802e-03     0.00000000e+00    
           1.05164957e-03     9.72316600e-04     0.00000000e+00    
           1.04540912e-03     1.13581086e-03     0.00000000e+00    
           1.23059982e-03     1.18871429e-03     0.00000000e+00    
           1.23324140e-03     1.27314718e-03     0.00000000e+00    
           4.68773767e-04     4.51234751e-04     0.00000000e+00    
           4.59935312e-04     4.96592955e-04     0.00000000e+00    
           3.96607327e-04     3.52034200e-04     0.00000000e+00    
           3.56918608e-04     3.39373306e-04     0.00000000e+00    
           3.82284401e-04     3.04378365e-04     0.00000000e+00    
           3.56918608e-04     3.39373306e-04     0.00000000e+00    
           3.96607327e-04     3.52034200e-04     0.00000000e+00    
           7.03689060e-04     6.31116680e-04     0.00000000e+00    
           7.01089797e-04     7.10112043e-04     0.00000000e+00    
           4.06703737e-04     3.25403787e-04     0.00000000e+00    
           3.98624950e-04     3.61879385e-04     0.00000000e+00    
           7.14909460e-04     6.19450584e-04     0.00000000e+00    
           7.13193149e-04     7.13431800e-04     0.00000000e+00    
           7.89508340e-04     7.18383351e-04     0.00000000e+00    
           7.85137701e-04     9.11401352e-04     0.00000000e+00    
           7.27845007e-04     7.09424552e-04     0.00000000e+00    
           7.26545462e-04     7.68271915e-04     0.00000000e+00    
           5.68512303e-04     4.14929702e-04     0.00000000e+00    
           5.61147172e-04     5.77767089e-04     0.00000000e+00    
           1.30000000e-03     1.30000000e-03     0.00000000e+00    
           0.00000000e+00     0.00000000e+00     0.00000000e+00    
           0.00000000e+00     0.00000000e+00     0.00000000e+00    
           1.30000000e-03     1.30000000e-03     0.00000000e+00    
           9.71367117e-04     9.00238578e-04     0.00000000e+00    
           9.96741583e-04     9.12244839e-04     0.00000000e+00    
           1.01830380e-03     9.29887465e-04     0.00000000e+00    
           1.03408808e-03     9.51924594e-04     0.00000000e+00    
           1.04329700e-03     9.76718380e-04     0.00000000e+00    
           1.04559807e-03     1.00232498e-03     0.00000000e+00    
           1.04143936e-03     1.02701935e-03     0.00000000e+00    
           1.03093288e-03     1.04913884e-03     0.00000000e+00    
           1.01372215e-03     1.06714945e-03     0.00000000e+00    
           9.91226872e-04     1.07898714e-03     0.00000000e+00    
           9.66042862e-04     1.08501222e-03     0.00000000e+00    
           9.12972435e-04     1.07933360e-03     0.00000000e+00    
           8.87797447e-04     1.06804259e-03     0.00000000e+00    
           8.66313989e-04     1.05105690e-03     0.00000000e+00    
           8.50005774e-04     1.02988735e-03     0.00000000e+00    
           8.39883520e-04     1.00594375e-03     0.00000000e+00    
           8.36471561e-04     9.81222256e-04     0.00000000e+00    
           8.39768094e-04     9.57236625e-04     0.00000000e+00    
           8.49665026e-04     9.34522599e-04     0.00000000e+00    
           8.66440474e-04     9.14458593e-04     0.00000000e+00    
           8.88308336e-04     9.00220883e-04     0.00000000e+00    
           9.15481069e-04     8.93333112e-04     0.00000000e+00    
           8.66478542e-04     9.19040176e-04     0.00000000e+00    
           8.66643910e-04     8.98245722e-04     0.00000000e+00    
           8.71735392e-04     8.78635037e-04     0.00000000e+00    
           8.81875807e-04     8.61392415e-04     0.00000000e+00    
           8.97073187e-04     8.48043710e-04     0.00000000e+00    
           9.16024903e-04     8.39203421e-04     0.00000000e+00    
           9.36805154e-04     8.35758634e-04     0.00000000e+00    
           9.79628065e-04     8.40399356e-04     0.00000000e+00    
           9.99802025e-04     8.49221367e-04     0.00000000e+00    
           1.01748994e-03     8.62336135e-04     0.00000000e+00    
           1.03138515e-03     8.78813793e-04     0.00000000e+00    
           1.04083808e-03     8.97938211e-04     0.00000000e+00    
           1.04540994e-03     9.18376842e-04     0.00000000e+00    
           1.04428129e-03     9.39269026e-04     0.00000000e+00    
           1.02615217e-03     9.76231415e-04     0.00000000e+00    
           1.00798788e-03     9.89610562e-04     0.00000000e+00    
           9.86055937e-04     9.97091993e-04     0.00000000e+00    
           9.62926715e-04     9.99035314e-04     0.00000000e+00    
           9.40369326e-04     9.95411770e-04     0.00000000e+00    
           9.18027596e-04     9.87694482e-04     0.00000000e+00    
           8.98190192e-04     9.75528324e-04     0.00000000e+00    
           8.82463355e-04     9.58936696e-04     0.00000000e+00    
           1.28965359e-03     1.35250494e-03     0.00000000e+00    
           1.27061713e-03     1.34929724e-03     0.00000000e+00    
           1.25223678e-03     1.34286075e-03     0.00000000e+00    
           1.23538112e-03     1.33285183e-03     0.00000000e+00    
           1.22122373e-03     1.31968281e-03     0.00000000e+00    
           1.21046300e-03     1.30425091e-03     0.00000000e+00    
           1.20357517e-03     1.28690200e-03     0.00000000e+00    
           1.20456901e-03     1.25030754e-03     0.00000000e+00    
           1.21225056e-03     1.23420276e-03     0.00000000e+00    
           1.22383842e-03     1.22085423e-03     0.00000000e+00    
           1.23907416e-03     1.21122599e-03     0.00000000e+00    
           1.25582167e-03     1.20723096e-03     0.00000000e+00    
           1.27306662e-03     1.20804342e-03     0.00000000e+00    
           1.29177782e-03     1.21097278e-03     0.00000000e+00    
           2.97839088e-05    -7.28000959e-05     0.00000000e+00    
           4.49063518e-05    -5.94418525e-05     0.00000000e+00    
           5.61231682e-05    -4.35306683e-05     0.00000000e+00    
           6.27890986e-05    -2.59702829e-05     0.00000000e+00    
           6.45460532e-05    -8.03261173e-06     0.00000000e+00    
           6.18574413e-05     9.05462002e-06     0.00000000e+00    
           5.47406598e-05     2.47894095e-05     0.00000000e+00    
           4.37454146e-05     3.79418125e-05     0.00000000e+00    
           2.77415347e-05     4.73113614e-05     0.00000000e+00    
           1.26757100e-03     1.31662656e-03     0.00000000e+00    
           1.25612388e-03     1.31620932e-03     0.00000000e+00    
           1.24382984e-03     1.31372991e-03     0.00000000e+00    
           1.23030529e-03     1.30943407e-03     0.00000000e+00    
           1.21668505e-03     1.30371074e-03     0.00000000e+00    
           1.20568869e-03     1.29516702e-03     0.00000000e+00    
           1.19795301e-03     1.28480513e-03     0.00000000e+00    
           1.19346019e-03     1.27378025e-03     0.00000000e+00    
           1.19457114e-03     1.25204888e-03     0.00000000e+00    
           1.20029575e-03     1.24305207e-03     0.00000000e+00    
           1.20881561e-03     1.23643898e-03     0.00000000e+00    
           1.21927180e-03     1.23212917e-03     0.00000000e+00    
           1.23068318e-03     1.23084092e-03     0.00000000e+00    
           1.24345790e-03     1.23157818e-03     0.00000000e+00    
           1.25703821e-03     1.23499532e-03     0.00000000e+00    
           1.27038395e-03     1.24056498e-03     0.00000000e+00    
          -9.30566057e-06    -4.05565115e-05     0.00000000e+00    
          -3.97619488e-06    -2.85260794e-05     0.00000000e+00    
          -2.61904188e-06    -1.61408425e-05     0.00000000e+00    
          -5.17282297e-06    -4.34811591e-06     0.00000000e+00    
          -1.16240690e-05     5.95843039e-06     0.00000000e+00    
           3.35473509e-04     1.91994230e-04     0.00000000e+00    
           3.55358294e-04     2.01681483e-04     0.00000000e+00    
           3.71943082e-04     2.15794556e-04     0.00000000e+00    
           3.84758780e-04     2.32919279e-04     0.00000000e+00    
           3.93349095e-04     2.52881960e-04     0.00000000e+00    
           3.96038027e-04     2.74404156e-04     0.00000000e+00    
           3.93480324e-04     2.95735983e-04     0.00000000e+00    
           3.84439016e-04     3.14969278e-04     0.00000000e+00    
           3.70088674e-04     3.30884388e-04     0.00000000e+00    
           3.50729446e-04     3.41690524e-04     0.00000000e+00    
           3.28295893e-04     3.46299785e-04     0.00000000e+00    
           2.83010100e-04     3.38877871e-04     0.00000000e+00    
           2.62373418e-04     3.28323338e-04     0.00000000e+00    
           2.44810770e-04     3.13581288e-04     0.00000000e+00    
           2.31774073e-04     2.95380043e-04     0.00000000e+00    
           2.24067830e-04     2.74958642e-04     0.00000000e+00    
           2.22098824e-04     2.53862730e-04     0.00000000e+00    
           2.25494543e-04     2.33476225e-04     0.00000000e+00    
           2.34276566e-04     2.15428779e-04     0.00000000e+00    
           2.48805154e-04     2.00846422e-04     0.00000000e+00    
           2.68542324e-04     1.91352869e-04     0.00000000e+00    
           2.90964410e-04     1.86954538e-04     0.00000000e+00    
           1.26550021e-03     1.11257820e-03     0.00000000e+00    
           1.27492601e-03     1.12998381e-03     0.00000000e+00    
           1.27997191e-03     1.14851969e-03     0.00000000e+00    
           1.28065492e-03     1.16739026e-03     0.00000000e+00    
           1.27647910e-03     1.18510053e-03     0.00000000e+00    
           1.26749789e-03     1.20052835e-03     0.00000000e+00    
           1.25408988e-03     1.21212471e-03     0.00000000e+00    
           1.23864110e-03     1.21919380e-03     0.00000000e+00    
           1.22179277e-03     1.22193363e-03     0.00000000e+00    
           1.18081982e-03     1.21703825e-03     0.00000000e+00    
           1.15932594e-03     1.20888965e-03     0.00000000e+00    
           1.14128599e-03     1.19629654e-03     0.00000000e+00    
           1.12744619e-03     1.18048862e-03     0.00000000e+00    
           1.11868232e-03     1.16246403e-03     0.00000000e+00    
           1.11471326e-03     1.14376738e-03     0.00000000e+00    
           1.11593446e-03     1.12480437e-03     0.00000000e+00    
           1.12207897e-03     1.10682950e-03     0.00000000e+00    
           1.13370852e-03     1.09133450e-03     0.00000000e+00    
           1.16770517e-03     1.07339467e-03     0.00000000e+00    
           1.18594163e-03     1.07188430e-03     0.00000000e+00    
           1.20392558e-03     1.07390725e-03     0.00000000e+00    
           1.22101838e-03     1.07925956e-03     0.00000000e+00    
           1.23734551e-03     1.08691351e-03     0.00000000e+00    
           1.07316882e-03     9.77683230e-04     0.00000000e+00    
           1.09362765e-03     9.87031963e-04     0.00000000e+00    
           1.11207319e-03     1.00001402e-03     0.00000000e+00    
           1.12620636e-03     1.01664185e-03     0.00000000e+00    
           1.13574031e-03     1.03547215e-03     0.00000000e+00    
           1.14015001e-03     1.05566240e-03     0.00000000e+00    
           1.13904860e-03     1.07613450e-03     0.00000000e+00    
           1.13300036e-03     1.09541672e-03     0.00000000e+00    
           1.12222496e-03     1.11212081e-03     0.00000000e+00    
           1.10704824e-03     1.12567830e-03     0.00000000e+00    
           1.08746579e-03     1.13414496e-03     0.00000000e+00    
           1.06671522e-03     1.13664195e-03     0.00000000e+00    
           1.02459302e-03     1.13042863e-03     0.00000000e+00    
           1.00505457e-03     1.12125545e-03     0.00000000e+00    
           9.87762236e-04     1.10817596e-03     0.00000000e+00    
           9.74147231e-04     1.09172240e-03     0.00000000e+00    
           9.64696053e-04     1.07290049e-03     0.00000000e+00    
           9.59871628e-04     1.05263840e-03     0.00000000e+00    
           9.60389618e-04     1.03251601e-03     0.00000000e+00    
           9.65375220e-04     1.01351447e-03     0.00000000e+00    
           9.75414878e-04     9.96880350e-04     0.00000000e+00    
           9.90159228e-04     9.83524951e-04     0.00000000e+00    
           1.00902887e-03     9.74881579e-04     0.00000000e+00    
           1.03002216e-03     9.71348258e-04     0.00000000e+00    
           1.24565721e-03     1.19256834e-03     0.00000000e+00    
           1.26040715e-03     1.19958248e-03     0.00000000e+00    
           1.27216580e-03     1.20956113e-03     0.00000000e+00    
           1.27989089e-03     1.22159731e-03     0.00000000e+00    
           1.28343632e-03     1.23452139e-03     0.00000000e+00    
           1.28268881e-03     1.24724687e-03     0.00000000e+00    
           1.27796875e-03     1.25870248e-03     0.00000000e+00    
           1.26953772e-03     1.26756367e-03     0.00000000e+00    
           1.25851098e-03     1.27297721e-03     0.00000000e+00    
           1.24650053e-03     1.27415254e-03     0.00000000e+00    
           1.21912453e-03     1.26923155e-03     0.00000000e+00    
           1.20549428e-03     1.26227667e-03     0.00000000e+00    
           1.19429186e-03     1.25215808e-03     0.00000000e+00    
           1.18666596e-03     1.23969698e-03     0.00000000e+00    
           1.18298887e-03     1.22598780e-03     0.00000000e+00    
           1.18389807e-03     1.21295580e-03     0.00000000e+00    
           1.18813361e-03     1.20157620e-03     0.00000000e+00    
           1.19587115e-03     1.19285192e-03     0.00000000e+00    
           1.20577810e-03     1.18828926e-03     0.00000000e+00    
           1.21683069e-03     1.18743279e-03     0.00000000e+00    
           4.77203866e-04     4.54365363e-04     0.00000000e+00    
           4.84389573e-04     4.58718772e-04     0.00000000e+00    
           4.89994592e-04     4.64382290e-04     0.00000000e+00    
           4.93982981e-04     4.71163134e-04     0.00000000e+00    
           4.95838176e-04     4.78065951e-04     0.00000000e+00    
           4.95924032e-04     4.84744727e-04     0.00000000e+00    
           4.94260283e-04     4.90646751e-04     0.00000000e+00    
           4.90836566e-04     4.95549466e-04     0.00000000e+00    
           4.83969983e-04     4.98786627e-04     0.00000000e+00    
           4.75869485e-04     4.99642687e-04     0.00000000e+00    
           4.67471109e-04     4.98662412e-04     0.00000000e+00    
           4.52414679e-04     4.93944215e-04     0.00000000e+00    
           4.45583253e-04     4.89699363e-04     0.00000000e+00    
           4.40081407e-04     4.84575430e-04     0.00000000e+00    
           4.35961585e-04     4.78515867e-04     0.00000000e+00    
           4.33444977e-04     4.72109823e-04     0.00000000e+00    
           4.32617613e-04     4.65424528e-04     0.00000000e+00    
           4.34091751e-04     4.59032541e-04     0.00000000e+00    
           4.37728595e-04     4.53417160e-04     0.00000000e+00    
           4.43932455e-04     4.49637853e-04     0.00000000e+00    
           4.51897649e-04     4.47945466e-04     0.00000000e+00    
           4.60527517e-04     4.48737788e-04     0.00000000e+00    
           3.52051109e-04     3.33737145e-04     0.00000000e+00    
           3.48836242e-04     3.27468268e-04     0.00000000e+00    
           3.47436086e-04     3.20802559e-04     0.00000000e+00    
           3.47869413e-04     3.14153760e-04     0.00000000e+00    
           3.50177026e-04     3.08384188e-04     0.00000000e+00    
           3.54819989e-04     3.03406996e-04     0.00000000e+00    
           3.61476501e-04     3.00291780e-04     0.00000000e+00    
           3.68819921e-04     3.00488697e-04     0.00000000e+00    
           3.75600910e-04     3.02303000e-04     0.00000000e+00    
           3.89231893e-04     3.07182607e-04     0.00000000e+00    
           3.95533920e-04     3.10979143e-04     0.00000000e+00    
           4.01521975e-04     3.16314952e-04     0.00000000e+00    
           4.06220381e-04     3.22207954e-04     0.00000000e+00    
           4.09579341e-04     3.28581227e-04     0.00000000e+00    
           4.10786510e-04     3.34914221e-04     0.00000000e+00    
           4.10271634e-04     3.40691622e-04     0.00000000e+00    
           4.07921558e-04     3.45823006e-04     0.00000000e+00    
           4.03533602e-04     3.49696231e-04     0.00000000e+00    
           3.88490880e-04     3.51769268e-04     0.00000000e+00    
           3.80381214e-04     3.49568290e-04     0.00000000e+00    
           3.72026494e-04     3.47476773e-04     0.00000000e+00    
           3.63783940e-04     3.44370666e-04     0.00000000e+00    
           7.14489724e-04     6.35288190e-04     0.00000000e+00    
           7.24819663e-04     6.41033694e-04     0.00000000e+00    
           7.33836321e-04     6.48456451e-04     0.00000000e+00    
           7.41453259e-04     6.57768745e-04     0.00000000e+00    
           7.46349164e-04     6.68761262e-04     0.00000000e+00    
           7.47882877e-04     6.80301106e-04     0.00000000e+00    
           7.46170932e-04     6.91100664e-04     0.00000000e+00    
           7.41795055e-04     7.00277160e-04     0.00000000e+00    
           7.35282723e-04     7.06933613e-04     0.00000000e+00    
           7.26400176e-04     7.10570253e-04     0.00000000e+00    
           7.14844849e-04     7.11189525e-04     0.00000000e+00    
           6.87318039e-04     7.06169696e-04     0.00000000e+00    
           6.75129704e-04     6.99290831e-04     0.00000000e+00    
           6.65294530e-04     6.90381450e-04     0.00000000e+00    
           6.58129633e-04     6.80122233e-04     0.00000000e+00    
           6.54006493e-04     6.69248810e-04     0.00000000e+00    
           6.52709336e-04     6.58249191e-04     0.00000000e+00    
           6.54317846e-04     6.48069778e-04     0.00000000e+00    
           6.59548561e-04     6.38938625e-04     0.00000000e+00    
           6.68486988e-04     6.32026582e-04     0.00000000e+00    