<?xml version="1.0"?>
<VTKFile type="UnstructuredGrid" version="0.1">
  <UnstructuredGrid>
    <Piece NumberOfPoints="1034" NumberOfCells="1614">
      <Points>
        <DataArray type="Float32" NumberOfComponents="3">
           5.21582007e-01     5.11657000e-01     0.00000000e+00    
           5.07319987e-01     5.11657000e-01     0.00000000e+00    
           4.65243995e-01     5.17907977e-01     0.00000000e+00    
           4.65243995e-01     5.04921973e-01     0.00000000e+00    
           4.75246996e-01     5.11415005e-01     0.00000000e+00    
           5.33852994e-01     5.04921973e-01     0.00000000e+00    
           5.33852994e-01     5.17907977e-01     0.00000000e+00    
           4.83779997e-01     5.34618974e-01     0.00000000e+00    
           4.68984991e-01     5.34618974e-01     0.00000000e+00    
           4.76381987e-01     5.23841977e-01     0.00000000e+00    
           4.68984991e-01     4.66010004e-01     0.00000000e+00    
           4.83779997e-01     4.66010004e-01     0.00000000e+00    
           4.99920011e-01     5.34618974e-01     0.00000000e+00    
           4.89203990e-01     5.34618974e-01     0.00000000e+00    
           4.94562000e-01     5.22280991e-01     0.00000000e+00    
           4.89203990e-01     4.66010004e-01     0.00000000e+00    
           4.99920011e-01     4.66010004e-01     0.00000000e+00    
           5.32517016e-01     4.74112004e-01     0.00000000e+00    
           5.17961025e-01     4.74112004e-01     0.00000000e+00    
           5.33852994e-01     5.19801974e-01     0.00000000e+00    
           5.33852994e-01     5.29603004e-01     0.00000000e+00    
           5.19536972e-01     5.24702013e-01     0.00000000e+00    
           4.65243995e-01     5.29603004e-01     0.00000000e+00    
           4.65243995e-01     5.19801974e-01     0.00000000e+00    
           4.92487997e-01     5.17117977e-01     0.00000000e+00    
           4.76904988e-01     5.17117977e-01     0.00000000e+00    
           5.17996013e-01     5.27033985e-01     0.00000000e+00    
           5.04473984e-01     5.27033985e-01     0.00000000e+00    
           5.08446991e-01     4.83435005e-01     0.00000000e+00    
           4.94414002e-01     4.83435005e-01     0.00000000e+00    
           4.65243995e-01     4.83101994e-01     0.00000000e+00    
           4.65243995e-01     4.74415004e-01     0.00000000e+00    
           4.78336990e-01     4.78758007e-01     0.00000000e+00    
           5.33852994e-01     4.74415004e-01     0.00000000e+00    
           5.33852994e-01     4.83101994e-01     0.00000000e+00    
           4.80668008e-01     4.95810986e-01     0.00000000e+00    
           4.66084987e-01     4.95810986e-01     0.00000000e+00    
           4.93930012e-01     4.79214013e-01     0.00000000e+00    
           4.78967011e-01     4.79214013e-01     0.00000000e+00    
           5.09284973e-01     4.97658014e-01     0.00000000e+00    
           4.95503992e-01     4.97658014e-01     0.00000000e+00    
           5.33011973e-01     5.01751006e-01     0.00000000e+00    
           5.17829001e-01     5.01751006e-01     0.00000000e+00    
           4.95451003e-01     5.00564992e-01     0.00000000e+00    
           4.80922014e-01     5.00564992e-01     0.00000000e+00    
           5.25367022e-01     4.88312006e-01     0.00000000e+00    
           5.09521008e-01     4.88312006e-01     0.00000000e+00    
           4.65243995e-01     5.34618974e-01     0.00000000e+00    
           4.65243995e-01     4.66010004e-01     0.00000000e+00    
           5.33852994e-01     4.66010004e-01     0.00000000e+00    
           5.33852994e-01     5.34618974e-01     0.00000000e+00    
           5.21338999e-01     5.13502657e-01     0.00000000e+00    
           5.20626605e-01     5.15222490e-01     0.00000000e+00    
           5.19493401e-01     5.16699374e-01     0.00000000e+00    
           5.18016517e-01     5.17832637e-01     0.00000000e+00    
           5.16296625e-01     5.18545032e-01     0.00000000e+00    
           5.14451027e-01     5.18787980e-01     0.00000000e+00    
           5.12605369e-01     5.18545032e-01     0.00000000e+00    
           5.10885477e-01     5.17832637e-01     0.00000000e+00    
           5.09408593e-01     5.16699374e-01     0.00000000e+00    
           5.08275390e-01     5.15222490e-01     0.00000000e+00    
           5.07562995e-01     5.13502657e-01     0.00000000e+00    
           5.07562995e-01     5.09811342e-01     0.00000000e+00    
           5.08275390e-01     5.08091509e-01     0.00000000e+00    
           5.09408593e-01     5.06614625e-01     0.00000000e+00    
           5.10885477e-01     5.05481362e-01     0.00000000e+00    
           5.12605369e-01     5.04768968e-01     0.00000000e+00    
           5.14451027e-01     5.04526019e-01     0.00000000e+00    
           5.16296625e-01     5.04768968e-01     0.00000000e+00    
           5.18016517e-01     5.05481362e-01     0.00000000e+00    
           5.19493401e-01     5.06614625e-01     0.00000000e+00    
           5.20626605e-01     5.08091509e-01     0.00000000e+00    
           5.21338999e-01     5.09811342e-01     0.00000000e+00    
           4.66931671e-01     5.04409373e-01     0.00000000e+00    
           4.68693614e-01     5.04328012e-01     0.00000000e+00    
           4.70421344e-01     5.04682958e-01     0.00000000e+00    
           4.72008497e-01     5.05452335e-01     0.00000000e+00    
           4.73357379e-01     5.06588817e-01     0.00000000e+00    
           4.74384934e-01     5.08022368e-01     0.00000000e+00    
           4.75027919e-01     5.09664834e-01     0.00000000e+00    
           4.75028187e-01     5.13165236e-01     0.00000000e+00    
           4.74385172e-01     5.14807761e-01     0.00000000e+00    
           4.73357558e-01     5.16241372e-01     0.00000000e+00    
           4.72008646e-01     5.17377913e-01     0.00000000e+00    
           4.70421433e-01     5.18147290e-01     0.00000000e+00    
           4.68693614e-01     5.18502235e-01     0.00000000e+00    
           4.66931641e-01     5.18420875e-01     0.00000000e+00    
           5.32303810e-01     5.16964078e-01     0.00000000e+00    
           5.31043947e-01     5.15658796e-01     0.00000000e+00    
           5.30155540e-01     5.14077127e-01     0.00000000e+00    
           5.29696345e-01     5.12322068e-01     0.00000000e+00    
           5.29696345e-01     5.10507941e-01     0.00000000e+00    
           5.30155540e-01     5.08752882e-01     0.00000000e+00    
           5.31043947e-01     5.07171214e-01     0.00000000e+00    
           5.32303810e-01     5.05865932e-01     0.00000000e+00    
           4.68517244e-01     5.32760799e-01     0.00000000e+00    
           4.68509018e-01     5.30844629e-01     0.00000000e+00    
           4.68960851e-01     5.28982460e-01     0.00000000e+00    
           4.69846308e-01     5.27283132e-01     0.00000000e+00    
           4.71113682e-01     5.25845945e-01     0.00000000e+00    
           4.72688884e-01     5.24754822e-01     0.00000000e+00    
           4.74479854e-01     5.24073541e-01     0.00000000e+00    
           4.78284091e-01     5.24073601e-01     0.00000000e+00    
           4.80075032e-01     5.24754822e-01     0.00000000e+00    
           4.81650203e-01     5.25845885e-01     0.00000000e+00    
           4.82917547e-01     5.27283013e-01     0.00000000e+00    
           4.83803004e-01     5.28982282e-01     0.00000000e+00    
           4.84254897e-01     5.30844331e-01     0.00000000e+00    
           4.84246761e-01     5.32760441e-01     0.00000000e+00    
           4.82887864e-01     4.67691004e-01     0.00000000e+00    
           4.81620818e-01     4.69110936e-01     0.00000000e+00    
           4.80051905e-01     4.70188022e-01     0.00000000e+00    
           4.78271484e-01     4.70860153e-01     0.00000000e+00    
           4.76382166e-01     4.71088618e-01     0.00000000e+00    
           4.74492878e-01     4.70860243e-01     0.00000000e+00    
           4.72712427e-01     4.70188200e-01     0.00000000e+00    
           4.71143454e-01     4.69111174e-01     0.00000000e+00    
           4.69876349e-01     4.67691302e-01     0.00000000e+00    
           4.88103986e-01     5.33086061e-01     0.00000000e+00    
           4.87431526e-01     5.31323195e-01     0.00000000e+00    
           4.87231195e-01     5.29447019e-01     0.00000000e+00    
           4.87516224e-01     5.27581930e-01     0.00000000e+00    
           4.88267750e-01     5.25851250e-01     0.00000000e+00    
           4.89436030e-01     5.24369657e-01     0.00000000e+00    
           4.90943670e-01     5.23235261e-01     0.00000000e+00    
           4.92690891e-01     5.22523046e-01     0.00000000e+00    
           4.96432930e-01     5.22523701e-01     0.00000000e+00    
           4.98180002e-01     5.23235798e-01     0.00000000e+00    
           4.99687493e-01     5.24370134e-01     0.00000000e+00    
           5.00855684e-01     5.25851607e-01     0.00000000e+00    
           5.01607120e-01     5.27582109e-01     0.00000000e+00    
           5.01892149e-01     5.29447079e-01     0.00000000e+00    
           5.01691818e-01     5.31323016e-01     0.00000000e+00    
           5.01019418e-01     5.33085763e-01     0.00000000e+00    
           4.98371124e-01     4.67269689e-01     0.00000000e+00    
           4.96539861e-01     4.68064904e-01     0.00000000e+00    
           4.94562000e-01     4.68336672e-01     0.00000000e+00    
           4.92584139e-01     4.68064904e-01     0.00000000e+00    
           4.90752876e-01     4.67269689e-01     0.00000000e+00    
           5.32269001e-01     4.75995690e-01     0.00000000e+00    
           5.31541944e-01     4.77750987e-01     0.00000000e+00    
           5.30385315e-01     4.79258329e-01     0.00000000e+00    
           5.28877974e-01     4.80414927e-01     0.00000000e+00    
[...]
      <PointData>
        <DataArray type="Float32" Name="Displacement" NumberOfComponents="3">
           1.74205075e-03     1.56666292e-03     0.00000000e+00    
           1.72095606e-03     1.55181321e-03     0.00000000e+00    
           4.55332556e-05     1.57145073e-03     0.00000000e+00    
           5.28574456e-05     1.55355188e-03     0.00000000e+00    
           6.46116096e-05     1.56856142e-03     0.00000000e+00    
           2.40285741e-03     1.55355188e-03     0.00000000e+00    
           2.39553326e-03     1.57145073e-03     0.00000000e+00    
           3.53318261e-04     2.26921635e-03     0.00000000e+00    
           3.31768242e-04     2.28062528e-03     0.00000000e+00    
           3.34930373e-04     2.25898391e-03     0.00000000e+00    
           3.31768242e-04    -6.93747206e-05     0.00000000e+00    
           3.53318261e-04    -8.07837278e-05     0.00000000e+00    
           9.11893207e-04     2.19794130e-03     0.00000000e+00    
           8.95952573e-04     2.19120109e-03     0.00000000e+00    
           9.11087845e-04     2.17655208e-03     0.00000000e+00    
           8.95952573e-04    -1.58798823e-04     0.00000000e+00    
           9.11893207e-04    -1.52058725e-04     0.00000000e+00    
           2.10141111e-03     3.09136230e-04     0.00000000e+00    
           2.08026264e-03     3.05785448e-04     0.00000000e+00    
           2.13828008e-03     2.00588768e-03     0.00000000e+00    
           2.13871850e-03     2.02034181e-03     0.00000000e+00    
           2.11798772e-03     2.01319880e-03     0.00000000e+00    
          -2.11281440e-04     2.02034181e-03     0.00000000e+00    
          -2.11719962e-04     2.00588768e-03     0.00000000e+00    
           5.87322400e-04     1.78406283e-03     0.00000000e+00    
           5.64591610e-04     1.78831909e-03     0.00000000e+00    
           1.61897903e-03     2.07103183e-03     0.00000000e+00    
           1.59930822e-03     2.06974731e-03     0.00000000e+00    
           1.21663406e-03     6.81830512e-04     0.00000000e+00    
           1.19655870e-03     6.78326702e-04     0.00000000e+00    
           1.79767536e-04     4.43240424e-04     0.00000000e+00    
           1.83487471e-04     4.31226683e-04     0.00000000e+00    
           2.00522249e-04     4.42302437e-04     0.00000000e+00    
           2.53348751e-03     4.31226683e-04     0.00000000e+00    
           2.52976757e-03     4.43240424e-04     0.00000000e+00    
           2.48634024e-04     1.05970760e-03     0.00000000e+00    
           2.27580167e-04     1.07614952e-03     0.00000000e+00    
           6.48814952e-04     4.72799962e-04     0.00000000e+00    
           6.27608621e-04     4.69150138e-04     0.00000000e+00    
           1.26069493e-03     1.04243320e-03     0.00000000e+00    
           1.24079979e-03     1.06013415e-03     0.00000000e+00    
           2.07161065e-03     1.26515143e-03     0.00000000e+00    
           2.04934343e-03     1.26594235e-03     0.00000000e+00    
           7.23723555e-04     1.19818724e-03     0.00000000e+00    
           7.03116064e-04     1.20442512e-03     0.00000000e+00    
           1.79148407e-03     8.12707702e-04     0.00000000e+00    
           1.76824315e-03     8.08767567e-04     0.00000000e+00    
           0.00000000e+00     2.34999997e-03     0.00000000e+00    
           0.00000000e+00     0.00000000e+00     0.00000000e+00    
           2.34999997e-03     0.00000000e+00     0.00000000e+00    
           2.34999997e-03     2.34999997e-03     0.00000000e+00    
           1.73963408e-03     1.56968494e-03     0.00000000e+00    
           1.73671753e-03     1.57145062e-03     0.00000000e+00    
           1.73331401e-03     1.57258741e-03     0.00000000e+00    
           1.72980293e-03     1.57278881e-03     0.00000000e+00    
           1.72641897e-03     1.57174794e-03     0.00000000e+00    
           1.72349520e-03     1.56987784e-03     0.00000000e+00    
           1.72151392e-03     1.56752008e-03     0.00000000e+00    
           1.72000332e-03     1.56490458e-03     0.00000000e+00    
           1.71874615e-03     1.56189350e-03     0.00000000e+00    
           1.71855174e-03     1.55826798e-03     0.00000000e+00    
           1.71920541e-03     1.55491848e-03     0.00000000e+00    
           1.72319112e-03     1.54909107e-03     0.00000000e+00    
           1.72638439e-03     1.54732913e-03     0.00000000e+00    
           1.72964449e-03     1.54625112e-03     0.00000000e+00    
           1.73334742e-03     1.54601200e-03     0.00000000e+00    
           1.73701323e-03     1.54712866e-03     0.00000000e+00    
           1.74038892e-03     1.54910004e-03     0.00000000e+00    
           1.74289907e-03     1.55194639e-03     0.00000000e+00    
           1.74425007e-03     1.55536248e-03     0.00000000e+00    
           1.74438022e-03     1.55835529e-03     0.00000000e+00    
           1.74382655e-03     1.56098639e-03     0.00000000e+00    
           1.74302480e-03     1.56368816e-03     0.00000000e+00    
           5.59561704e-05     1.55314780e-03     0.00000000e+00    
           5.89353331e-05     1.55410124e-03     0.00000000e+00    
           6.10910720e-05     1.55564502e-03     0.00000000e+00    
           6.29259812e-05     1.55751349e-03     0.00000000e+00    
           6.44656029e-05     1.55994971e-03     0.00000000e+00    
           6.53426541e-05     1.56266335e-03     0.00000000e+00    
           6.53020907e-05     1.56577514e-03     0.00000000e+00    
           6.30521681e-05     1.57099834e-03     0.00000000e+00    
           6.11906798e-05     1.57288031e-03     0.00000000e+00    
           5.88226503e-05     1.57447031e-03     0.00000000e+00    
           5.61710258e-05     1.57540618e-03     0.00000000e+00    
           5.32761369e-05     1.57560315e-03     0.00000000e+00    
           5.01553113e-05     1.57519081e-03     0.00000000e+00    
           4.73791115e-05     1.57344388e-03     0.00000000e+00    
           2.39444617e-03     1.56937621e-03     0.00000000e+00    
           2.39357050e-03     1.56711962e-03     0.00000000e+00    
           2.39287480e-03     1.56406150e-03     0.00000000e+00    
           2.39313487e-03     1.56096381e-03     0.00000000e+00    
           2.39466294e-03     1.55791978e-03     0.00000000e+00    
           2.39674561e-03     1.55581813e-03     0.00000000e+00    
           2.39872606e-03     1.55480381e-03     0.00000000e+00    
           2.40069837e-03     1.55417481e-03     0.00000000e+00    
           3.29420523e-04     2.27796845e-03     0.00000000e+00    
           3.28013877e-04     2.27492023e-03     0.00000000e+00    
           3.27441172e-04     2.27183965e-03     0.00000000e+00    
           3.27424903e-04     2.26864312e-03     0.00000000e+00    
           3.28260008e-04     2.26565101e-03     0.00000000e+00    
           3.29892588e-04     2.26280093e-03     0.00000000e+00    
           3.32314929e-04     2.26044911e-03     0.00000000e+00    
           3.37798818e-04     2.25814618e-03     0.00000000e+00    
           3.40315833e-04     2.25778949e-03     0.00000000e+00    
           3.43037711e-04     2.25781836e-03     0.00000000e+00    
           3.46089044e-04     2.25843256e-03     0.00000000e+00    
           3.49018170e-04     2.26045842e-03     0.00000000e+00    
           3.51181283e-04     2.26299977e-03     0.00000000e+00    
           3.52733186e-04     2.26589967e-03     0.00000000e+00    
           3.53176903e-04    -7.75930675e-05     0.00000000e+00    
           3.52356466e-04    -7.43654164e-05     0.00000000e+00    
           3.50644550e-04    -7.16779905e-05     0.00000000e+00    
           3.48257716e-04    -6.93163456e-05     0.00000000e+00    
           3.45666573e-04    -6.80243102e-05     0.00000000e+00    
           3.43192864e-04    -6.71412563e-05     0.00000000e+00    
           3.40600061e-04    -6.65109183e-05     0.00000000e+00    
           3.37686884e-04    -6.65930711e-05     0.00000000e+00    
           3.34446959e-04    -6.75971969e-05     0.00000000e+00    
           8.95341567e-04     2.18810304e-03     0.00000000e+00    
           8.95466306e-04     2.18497589e-03     0.00000000e+00    
           8.96474288e-04     2.18204479e-03     0.00000000e+00    
           8.98108003e-04     2.17916979e-03     0.00000000e+00    
           9.00884217e-04     2.17721588e-03     0.00000000e+00    
           9.03367472e-04     2.17650342e-03     0.00000000e+00    
           9.05743800e-04     2.17620260e-03     0.00000000e+00    
           9.08133981e-04     2.17609177e-03     0.00000000e+00    
           9.14013421e-04     2.17775465e-03     0.00000000e+00    
           9.16442659e-04     2.17999890e-03     0.00000000e+00    
           9.18161182e-04     2.18285574e-03     0.00000000e+00    
           9.18999547e-04     2.18581478e-03     0.00000000e+00    
           9.18769510e-04     2.18882482e-03     0.00000000e+00    
           9.18021775e-04     2.19149562e-03     0.00000000e+00    
           9.16740973e-04     2.19414476e-03     0.00000000e+00    
           9.14522680e-04     2.19630380e-03     0.00000000e+00    
           9.08863381e-04    -1.51237895e-04     0.00000000e+00    
           9.05649271e-04    -1.51185523e-04     0.00000000e+00    
           9.02506290e-04    -1.51872620e-04     0.00000000e+00    
           8.99625476e-04    -1.53613146e-04     0.00000000e+00    
           8.97562772e-04    -1.56008711e-04     0.00000000e+00    
           2.10047583e-03     3.11318756e-04     0.00000000e+00    
           2.09937408e-03     3.13055207e-04     0.00000000e+00    
           2.09791632e-03     3.15131125e-04     0.00000000e+00    
           2.09524110e-03     3.16913909e-04     0.00000000e+00    
           2.09206296e-03     3.17763450e-04     0.00000000e+00    
           2.08906666e-03     3.17575061e-04     0.00000000e+00    
           2.08653882e-03     3.16599850e-04     0.00000000e+00    
           2.08465429e-03     3.15360754e-04     0.00000000e+00    
           2.08318396e-03     3.13904864e-04     0.00000000e+00    
           2.08142097e-03     3.11851152e-04     0.00000000e+00    
           2.08033202e-03     3.09056457e-04     0.00000000e+00    
           2.08096975e-03     3.02957429e-04     0.00000000e+00    
           2.08254135e-03     3.00139072e-04     0.00000000e+00    
           2.08474463e-03     2.98009720e-04     0.00000000e+00    
           2.08740169e-03     2.96768354e-04     0.00000000e+00    
           2.09012209e-03     2.96410115e-04     0.00000000e+00    
           2.09253887e-03     2.96602404e-04     0.00000000e+00    
           2.09493865e-03     2.97175808e-04     0.00000000e+00    
           2.09746556e-03     2.98313942e-04     0.00000000e+00    
           2.09966465e-03     3.00491956e-04     0.00000000e+00    
           2.10114871e-03     3.03241570e-04     0.00000000e+00    
           2.10185675e-03     3.06169153e-04     0.00000000e+00    
           2.13673711e-03     2.02227710e-03     0.00000000e+00    
           2.13441392e-03     2.02381727e-03     0.00000000e+00    
           2.13169586e-03     2.02488923e-03     0.00000000e+00    
           2.12863856e-03     2.02502171e-03     0.00000000e+00    
           2.12554005e-03     2.02453113e-03     0.00000000e+00    
           2.12267390e-03     2.02309620e-03     0.00000000e+00    
           2.12052697e-03     2.02077697e-03     0.00000000e+00    
           2.11900915e-03     2.01820000e-03     0.00000000e+00    
           2.11826968e-03     2.01565097e-03     0.00000000e+00    
           2.11808737e-03     2.01040879e-03     0.00000000e+00    
           2.11908971e-03     2.00771168e-03     0.00000000e+00    
           2.12081242e-03     2.00507604e-03     0.00000000e+00    
           2.12332211e-03     2.00316194e-03     0.00000000e+00    
           2.12587812e-03     2.00199313e-03     0.00000000e+00    
           2.12907675e-03     2.00143829e-03     0.00000000e+00    
           2.13202811e-03     2.00180942e-03     0.00000000e+00    
           2.13450589e-03     2.00289302e-03     0.00000000e+00    
           2.13645259e-03     2.00423365e-03     0.00000000e+00    
          -2.10184720e-04     2.00797268e-03     0.00000000e+00    
          -2.09135775e-04     2.01044115e-03     0.00000000e+00    
          -2.08836515e-04     2.01309519e-03     0.00000000e+00    
          -2.09195961e-04     2.01583793e-03     0.00000000e+00    
          -2.10029539e-04     2.01813830e-03     0.00000000e+00    
           5.87369374e-04     1.78706634e-03     0.00000000e+00    
           5.86641137e-04     1.78998930e-03     0.00000000e+00    
           5.85296773e-04     1.79204659e-03     0.00000000e+00    
           5.84100198e-04     1.79376965e-03     0.00000000e+00    
           5.82351408e-04     1.79551449e-03     0.00000000e+00    
           5.79671469e-04     1.79710530e-03     0.00000000e+00    
           5.76646475e-04     1.79736223e-03     0.00000000e+00    
           5.74154954e-04     1.79714162e-03     0.00000000e+00    
           5.71845041e-04     1.79656479e-03     0.00000000e+00    
           5.69605152e-04     1.79565127e-03     0.00000000e+00    
           5.67086914e-04     1.79380691e-03     0.00000000e+00    
           5.65474737e-04     1.79101108e-03     0.00000000e+00    
           5.64410817e-04     1.78538181e-03     0.00000000e+00    
           5.64839225e-04     1.78269565e-03     0.00000000e+00    
           5.65865252e-04     1.77990994e-03     0.00000000e+00    
           5.67675859e-04     1.77758059e-03     0.00000000e+00    
           5.70063654e-04     1.77587802e-03     0.00000000e+00    
           5.72902674e-04     1.77487638e-03     0.00000000e+00    
           5.75333834e-04     1.77457510e-03     0.00000000e+00    
           5.77716215e-04     1.77458313e-03     0.00000000e+00    
           5.80397027e-04     1.77514867e-03     0.00000000e+00    
           5.82845591e-04     1.77658699e-03     0.00000000e+00    
           5.85003989e-04     1.77868200e-03     0.00000000e+00    
           5.86550392e-04     1.78124930e-03     0.00000000e+00    
           1.61868846e-03     2.07371265e-03     0.00000000e+00    
           1.61718519e-03     2.07633106e-03     0.00000000e+00    
           1.61497702e-03     2.07842165e-03     0.00000000e+00    
           1.61244930e-03     2.07968033e-03     0.00000000e+00    
           1.60971296e-03     2.08008080e-03     0.00000000e+00    
           1.60710944e-03     2.07987335e-03     0.00000000e+00    
           1.60444365e-03     2.07906845e-03     0.00000000e+00    
           1.60212966e-03     2.07736832e-03     0.00000000e+00    
           1.60025735e-03     2.07509194e-03     0.00000000e+00    
           1.59945653e-03     2.07233639e-03     0.00000000e+00    
           1.59969274e-03     2.06695450e-03     0.00000000e+00    
           1.60111091e-03     2.06428627e-03     0.00000000e+00    
           1.60331675e-03     2.06219521e-03     0.00000000e+00    
           1.60617509e-03     2.06059171e-03     0.00000000e+00    
           1.60931190e-03     2.06040870e-03     0.00000000e+00    
           1.61180552e-03     2.06091558e-03     0.00000000e+00    
           1.61412975e-03     2.06173491e-03     0.00000000e+00    
           1.61670381e-03     2.06338475e-03     0.00000000e+00    
           1.61822280e-03     2.06605089e-03     0.00000000e+00    
           1.61890057e-03     2.06862483e-03     0.00000000e+00    
           1.21594348e-03     6.84126921e-04     0.00000000e+00    
           1.21468445e-03     6.86260057e-04     0.00000000e+00    
           1.21285627e-03     6.88485045e-04     0.00000000e+00    
           1.21000572e-03     6.89732376e-04     0.00000000e+00    
           1.20755925e-03     6.90025568e-04     0.00000000e+00    
           1.20564341e-03     6.89926615e-04     0.00000000e+00    
           1.20347750e-03     6.89528941e-04     0.00000000e+00    
           1.20090344e-03     6.88762637e-04     0.00000000e+00    
           1.19833706e-03     6.86606625e-04     0.00000000e+00    
           1.19690713e-03     6.83841819e-04     0.00000000e+00    
           1.19629200e-03     6.80983765e-04     0.00000000e+00    
           1.19725370e-03     6.76354510e-04     0.00000000e+00    
           1.19821099e-03     6.74413575e-04     0.00000000e+00    
           1.19966362e-03     6.72445167e-04     0.00000000e+00    
           1.20183860e-03     6.70920650e-04     0.00000000e+00    
           1.20450871e-03     6.69885194e-04     0.00000000e+00    
           1.20750442e-03     6.69559406e-04     0.00000000e+00    
           1.21032249e-03     6.70332811e-04     0.00000000e+00    
           1.21281191e-03     6.71708549e-04     0.00000000e+00    
           1.21495966e-03     6.73851115e-04     0.00000000e+00    
           1.21636072e-03     6.76276220e-04     0.00000000e+00    
           1.21700310e-03     6.79105869e-04     0.00000000e+00    
           1.85710873e-04     4.29668493e-04     0.00000000e+00    
           1.88498641e-04     4.28446627e-04     0.00000000e+00    
           1.91591738e-04     4.28331608e-04     0.00000000e+00    
           1.94385095e-04     4.29298816e-04     0.00000000e+00    
           1.96511188e-04     4.30545275e-04     0.00000000e+00    
           1.98251772e-04     4.32108587e-04     0.00000000e+00    
           2.00189141e-04     4.34252754e-04     0.00000000e+00    
           2.01198287e-04     4.37485956e-04     0.00000000e+00    
           2.01103860e-04     4.40237782e-04     0.00000000e+00    
           1.99695380e-04     4.44280508e-04     0.00000000e+00    
           1.98466267e-04     4.46426740e-04     0.00000000e+00    
           1.96426408e-04     4.48560459e-04     0.00000000e+00    
           1.93827844e-04     4.50119493e-04     0.00000000e+00    
           1.90730439e-04     4.50516876e-04     0.00000000e+00    
           1.88085833e-04     4.50206921e-04     0.00000000e+00    
           1.85488156e-04     4.49449901e-04     0.00000000e+00    
           1.83194148e-04     4.47894417e-04     0.00000000e+00    
           1.81197553e-04     4.45809448e-04     0.00000000e+00    
           2.52908771e-03     4.40204720e-04     0.00000000e+00    
           2.52939225e-03     4.37003910e-04     0.00000000e+00    
           2.53058085e-03     4.34594956e-04     0.00000000e+00    
           2.53194198e-03     4.32950037e-04     0.00000000e+00    
           2.50318786e-04     1.06221554e-03     0.00000000e+00    
           2.51539488e-04     1.06511696e-03     0.00000000e+00    
           2.51955877e-04     1.06876413e-03     0.00000000e+00    
           2.51005142e-04     1.07241853e-03     0.00000000e+00    
           2.48998142e-04     1.07568584e-03     0.00000000e+00    
           2.46437237e-04     1.07828167e-03     0.00000000e+00    
           2.43494869e-04     1.07992149e-03     0.00000000e+00    
           2.40289737e-04     1.08106958e-03     0.00000000e+00    
           2.36604290e-04     1.08119019e-03     0.00000000e+00    
           2.33031911e-04     1.08035980e-03     0.00000000e+00    
           2.30071964e-04     1.07849401e-03     0.00000000e+00    
           2.25639582e-04     1.07325974e-03     0.00000000e+00    
           2.24479736e-04     1.06956053e-03     0.00000000e+00    
           2.24676391e-04     1.06578215e-03     0.00000000e+00    
           2.25625059e-04     1.06246374e-03     0.00000000e+00    
           2.27334574e-04     1.05937058e-03     0.00000000e+00    
           2.29680576e-04     1.05685904e-03     0.00000000e+00    
           2.32697654e-04     1.05484144e-03     0.00000000e+00    
           2.36141161e-04     1.05393270e-03     0.00000000e+00    
           2.39861896e-04     1.05400593e-03     0.00000000e+00    