<?xml version="1.0"?>
<VTKFile type="UnstructuredGrid" version="0.1">
  <UnstructuredGrid>
    <Piece NumberOfPoints="1034" NumberOfCells="1614">
      <Points>
        <DataArray type="Float32" NumberOfComponents="3">
           5.21582007e-01     5.11657000e-01     0.00000000e+00    
           5.07319987e-01     5.11657000e-01     0.00000000e+00    
           4.65243995e-01     5.17907977e-01     0.00000000e+00    
           4.65243995e-01     5.04921973e-01     0.00000000e+00    
           4.75246996e-01     5.11415005e-01     0.00000000e+00    
           5.33852994e-01     5.04921973e-01     0.00000000e+00    
           5.33852994e-01     5.17907977e-01     0.00000000e+00    
           4.83779997e-01     5.34618974e-01     0.00000000e+00    
           4.68984991e-01     5.34618974e-01     0.00000000e+00    
           4.76381987e-01     5.23841977e-01     0.00000000e+00    
           4.68984991e-01     4.66010004e-01     0.00000000e+00    
           4.83779997e-01     4.66010004e-01     0.00000000e+00    
           4.99920011e-01     5.34618974e-01     0.00000000e+00    
           4.89203990e-01     5.34618974e-01     0.00000000e+00    
           4.94562000e-01     5.22280991e-01     0.00000000e+00    
           4.89203990e-01     4.66010004e-01     0.00000000e+00    
           4.99920011e-01     4.66010004e-01     0.00000000e+00    
           5.32517016e-01     4.74112004e-01     0.00000000e+00    
           5.17961025e-01     4.74112004e-01     0.00000000e+00    
           5.33852994e-01     5.19801974e-01     0.00000000e+00    
           5.33852994e-01     5.29603004e-01     0.00000000e+00    
           5.19536972e-01     5.24702013e-01     0.00000000e+00    
           4.65243995e-01     5.29603004e-01     0.00000000e+00    
           4.65243995e-01     5.19801974e-01     0.00000000e+00    
           4.92487997e-01     5.17117977e-01     0.00000000e+00    
           4.76904988e-01     5.17117977e-01     0.00000000e+00    
           5.17996013e-01     5.27033985e-01     0.00000000e+00    
           5.04473984e-01     5.27033985e-01     0.00000000e+00    
           5.08446991e-01     4.83435005e-01     0.00000000e+00    
           4.94414002e-01     4.83435005e-01     0.00000000e+00    
           4.65243995e-01     4.83101994e-01     0.00000000e+00    
           4.65243995e-01     4.74415004e-01     0.00000000e+00    
           4.78336990e-01     4.78758007e-01     0.00000000e+00    
           5.33852994e-01     4.74415004e-01     0.00000000e+00    
           5.33852994e-01     4.83101994e-01     0.00000000e+00    
           4.80668008e-01     4.95810986e-01     0.00000000e+00    
           4.66084987e-01     4.95810986e-01     0.00000000e+00    
           4.93930012e-01     4.79214013e-01     0.00000000e+00    
           4.78967011e-01     4.79214013e-01     0.00000000e+00    
           5.09284973e-01     4.97658014e-01     0.00000000e+00    
           4.95503992e-01     4.97658014e-01     0.00000000e+00    
           5.33011973e-01     5.01751006e-01     0.00000000e+00    
           5.17829001e-01     5.01751006e-01     0.00000000e+00    
           4.95451003e-01     5.00564992e-01     0.00000000e+00    
           4.80922014e-01     5.00564992e-01     0.00000000e+00    
           5.25367022e-01     4.88312006e-01     0.00000000e+00    
           5.09521008e-01     4.88312006e-01     0.00000000e+00    
           4.65243995e-01     5.34618974e-01     0.00000000e+00    
           4.65243995e-01     4.66010004e-01     0.00000000e+00    
           5.33852994e-01     4.66010004e-01     0.00000000e+00    
           5.33852994e-01     5.34618974e-01     0.00000000e+00    
           5.21338999e-01     5.13502657e-01     0.00000000e+00    
           5.20626605e-01     5.15222490e-01     0.00000000e+00    
           5.19493401e-01     5.16699374e-01     0.00000000e+00    
           5.18016517e-01     5.17832637e-01     0.00000000e+00    
           5.16296625e-01     5.18545032e-01     0.00000000e+00    
           5.14451027e-01     5.18787980e-01     0.00000000e+00    
           5.12605369e-01     5.18545032e-01     0.00000000e+00    
           5.10885477e-01     5.17832637e-01     0.00000000e+00    
           5.09408593e-01     5.16699374e-01     0.00000000e+00    
           5.08275390e-01     5.15222490e-01     0.00000000e+00    
           5.07562995e-01     5.13502657e-01     0.00000000e+00    
           5.07562995e-01     5.09811342e-01     0.00000000e+00    
           5.08275390e-01     5.08091509e-01     0.00000000e+00    
           5.09408593e-01     5.06614625e-01     0.00000000e+00    
           5.10885477e-01     5.05481362e-01     0.00000000e+00    
           5.12605369e-01     5.04768968e-01     0.00000000e+00    
           5.14451027e-01     5.04526019e-01     0.00000000e+00    
           5.16296625e-01     5.04768968e-01     0.00000000e+00    
           5.18016517e-01     5.05481362e-01     0.00000000e+00    
           5.19493401e-01     5.06614625e-01     0.00000000e+00    
           5.20626605e-01     5.08091509e-01     0.00000000e+00    
           5.21338999e-01     5.09811342e-01     0.00000000e+00    
           4.66931671e-01     5.04409373e-01     0.00000000e+00    
           4.68693614e-01     5.04328012e-01     0.00000000e+00    
           4.70421344e-01     5.04682958e-01     0.00000000e+00    
           4.72008497e-01     5.05452335e-01     0.00000000e+00    
           4.73357379e-01     5.06588817e-01     0.00000000e+00    
           4.74384934e-01     5.08022368e-01     0.00000000e+00    
           4.75027919e-01     5.09664834e-01     0.00000000e+00    
           4.75028187e-01     5.13165236e-01     0.00000000e+00    
           4.74385172e-01     5.14807761e-01     0.00000000e+00    
           4.73357558e-01     5.16241372e-01     0.00000000e+00    
           4.72008646e-01     5.17377913e-01     0.00000000e+00    
           4.70421433e-01     5.18147290e-01     0.00000000e+00    
           4.68693614e-01     5.18502235e-01     0.00000000e+00    
           4.66931641e-01     5.18420875e-01     0.00000000e+00    
           5.32303810e-01     5.16964078e-01     0.00000000e+00    
           5.31043947e-01     5.15658796e-01     0.00000000e+00    
           5.30155540e-01     5.14077127e-01     0.00000000e+00    
           5.29696345e-01     5.12322068e-01     0.00000000e+00    
           5.29696345e-01     5.10507941e-01     0.00000000e+00    
           5.30155540e-01     5.08752882e-01     0.00000000e+00    
           5.31043947e-01     5.07171214e-01     0.00000000e+00    
           5.32303810e-01     5.05865932e-01     0.00000000e+00    
           4.68517244e-01     5.32760799e-01     0.00000000e+00    
           4.68509018e-01     5.30844629e-01     0.00000000e+00    
           4.68960851e-01     5.28982460e-01     0.00000000e+00    
           4.69846308e-01     5.27283132e-01     0.00000000e+00    
           4.71113682e-01     5.25845945e-01     0.00000000e+00    
           4.72688884e-01     5.24754822e-01     0.00000000e+00    
           4.74479854e-01     5.24073541e-01     0.00000000e+00    
           4.78284091e-01     5.24073601e-01     0.00000000e+00    
           4.80075032e-01     5.24754822e-01     0.00000000e+00    
           4.81650203e-01     5.25845885e-01     0.00000000e+00    
           4.82917547e-01     5.27283013e-01     0.00000000e+00    
           4.83803004e-01     5.28982282e-01     0.00000000e+00    
           4.84254897e-01     5.30844331e-01     0.00000000e+00    
           4.84246761e-01     5.32760441e-01     0.00000000e+00    
           4.82887864e-01     4.67691004e-01     0.00000000e+00    
           4.81620818e-01     4.69110936e-01     0.00000000e+00    
           4.80051905e-01     4.70188022e-01     0.00000000e+00    
           4.78271484e-01     4.70860153e-01     0.00000000e+00    
           4.76382166e-01     4.71088618e-01     0.00000000e+00    
           4.74492878e-01     4.70860243e-01     0.00000000e+00    
           4.72712427e-01     4.70188200e-01     0.00000000e+00    
           4.71143454e-01     4.69111174e-01     0.00000000e+00    
           4.69876349e-01     4.67691302e-01     0.00000000e+00    
           4.88103986e-01     5.33086061e-01     0.00000000e+00    
           4.87431526e-01     5.31323195e-01     0.00000000e+00    
           4.87231195e-01     5.29447019e-01     0.00000000e+00    
           4.87516224e-01     5.27581930e-01     0.00000000e+00    
           4.88267750e-01     5.25851250e-01     0.00000000e+00    
           4.89436030e-01     5.24369657e-01     0.00000000e+00    
           4.90943670e-01     5.23235261e-01     0.00000000e+00    
           4.92690891e-01     5.22523046e-01     0.00000000e+00    
           4.96432930e-01     5.22523701e-01     0.00000000e+00    
           4.98180002e-01     5.23235798e-01     0.00000000e+00    
           4.99687493e-01     5.24370134e-01     0.00000000e+00    
           5.00855684e-01     5.25851607e-01     0.00000000e+00    
           5.01607120e-01     5.27582109e-01     0.00000000e+00    
           5.01892149e-01     5.29447079e-01     0.00000000e+00    
           5.01691818e-01     5.31323016e-01     0.00000000e+00    
           5.01019418e-01     5.33085763e-01     0.00000000e+00    
           4.98371124e-01     4.67269689e-01     0.00000000e+00    
           4.96539861e-01     4.68064904e-01     0.00000000e+00    
           4.94562000e-01     4.68336672e-01     0.00000000e+00    
           4.92584139e-01     4.68064904e-01     0.00000000e+00    
           4.90752876e-01     4.67269689e-01     0.00000000e+00    
           5.32269001e-01     4.75995690e-01     0.00000000e+00    
           5.31541944e-01     4.77750987e-01     0.00000000e+00    
           5.30385315e-01     4.79258329e-01     0.00000000e+00    
           5.28877974e-01     4.80414927e-01     0.00000000e+00    
[...]
      <PointData>
        <DataArray type="Float32" Name="Displacement" NumberOfComponents="3">
           6.23269356e-04     5.41631423e-04     0.00000000e+00    
           6.05979178e-04     5.35331492e-04     0.00000000e+00    
          -1.04257379e-05     5.58701809e-04     0.00000000e+00    
          -6.96383177e-06     5.40874025e-04     0.00000000e+00    
           5.30886246e-06     5.54598169e-04     0.00000000e+00    
           7.93036190e-04     5.40874025e-04     0.00000000e+00    
           7.89574289e-04     5.58701809e-04     0.00000000e+00    
           1.25062492e-04     7.83519878e-04     0.00000000e+00    
           1.06876862e-04     7.93838233e-04     0.00000000e+00    
           1.08894950e-04     7.74064101e-04     0.00000000e+00    
           1.06876862e-04    -6.16179523e-06     0.00000000e+00    
           1.25062492e-04    -1.64801131e-05     0.00000000e+00    
           2.93176767e-04     7.45332567e-04     0.00000000e+00    
           2.77975894e-04     7.53778382e-04     0.00000000e+00    
           2.75426166e-04     7.35179929e-04     0.00000000e+00    
           2.77975894e-04    -4.62216340e-05     0.00000000e+00    
           2.93176767e-04    -5.46674564e-05     0.00000000e+00    
           7.41298252e-04     1.23986392e-04     0.00000000e+00    
           7.22665805e-04     1.29432679e-04     0.00000000e+00    
           7.34294241e-04     6.87543128e-04     0.00000000e+00    
           7.37001828e-04     7.01340090e-04     0.00000000e+00    
           7.16405688e-04     6.96922303e-04     0.00000000e+00    
          -6.29981441e-05     7.01340090e-04     0.00000000e+00    
          -6.57057535e-05     6.87543128e-04     0.00000000e+00    
           1.77602269e-04     6.37864752e-04     0.00000000e+00    
           1.58695795e-04     6.44683372e-04     0.00000000e+00    
           5.77275117e-04     6.99857657e-04     0.00000000e+00    
           5.58081665e-04     6.89090986e-04     0.00000000e+00    
           4.04773658e-04     2.67893542e-04     0.00000000e+00    
           3.85447813e-04     2.59176159e-04     0.00000000e+00    
           7.03146361e-05     1.56498776e-04     0.00000000e+00    
           6.92022222e-05     1.46036109e-04     0.00000000e+00    
           8.78148494e-05     1.50507069e-04     0.00000000e+00    
           8.69202195e-04     1.46036109e-04     0.00000000e+00    
           8.70314660e-04     1.56498776e-04     0.00000000e+00    
           8.40105640e-05     3.98703269e-04     0.00000000e+00    
           6.48655041e-05     3.92693328e-04     0.00000000e+00    
           2.11795894e-04     1.78104412e-04     0.00000000e+00    
           1.91056504e-04     1.61457094e-04     0.00000000e+00    
           4.18169511e-04     3.50444636e-04     0.00000000e+00    
           3.98861477e-04     3.67206259e-04     0.00000000e+00    
           7.09282642e-04     4.58557857e-04     0.00000000e+00    
           6.88554661e-04     4.58161841e-04     0.00000000e+00    
           2.29342608e-04     4.27222811e-04     0.00000000e+00    
           2.09317077e-04     4.38920426e-04     0.00000000e+00    
           6.07260270e-04     3.08443035e-04     0.00000000e+00    
           5.85688045e-04     2.97364517e-04     0.00000000e+00    
           0.00000000e+00     7.99999980e-04     0.00000000e+00    
           0.00000000e+00     0.00000000e+00     0.00000000e+00    
           7.99999980e-04     0.00000000e+00     0.00000000e+00    
           7.99999980e-04     7.99999980e-04     0.00000000e+00    
           6.21879473e-04     5.45136223e-04     0.00000000e+00    
           6.20352104e-04     5.47392294e-04     0.00000000e+00    
           6.18382997e-04     5.48988057e-04     0.00000000e+00    
           6.16094272e-04     5.49822755e-04     0.00000000e+00    
           6.13472890e-04     5.50016586e-04     0.00000000e+00    
           6.10981486e-04     5.49303950e-04     0.00000000e+00    
           6.09448121e-04     5.48018666e-04     0.00000000e+00    
           6.08171686e-04     5.46324300e-04     0.00000000e+00    
           6.06800546e-04     5.43957343e-04     0.00000000e+00    
           6.05810666e-04     5.40972746e-04     0.00000000e+00    
           6.05581619e-04     5.38102642e-04     0.00000000e+00    
           6.06915739e-04     5.32629201e-04     0.00000000e+00    
           6.08487986e-04     5.30743506e-04     0.00000000e+00    
           6.10337476e-04     5.29563637e-04     0.00000000e+00    
           6.12360484e-04     5.29034704e-04     0.00000000e+00    
           6.14893157e-04     5.28986042e-04     0.00000000e+00    
           6.18083926e-04     5.29548852e-04     0.00000000e+00    
           6.21218001e-04     5.30832564e-04     0.00000000e+00    
           6.23263943e-04     5.32606558e-04     0.00000000e+00    
           6.24048233e-04     5.34487073e-04     0.00000000e+00    
           6.24211098e-04     5.36423875e-04     0.00000000e+00    
           6.23797008e-04     5.38631692e-04     0.00000000e+00    
          -3.70554608e-06     5.39995148e-04     0.00000000e+00    
          -6.74833927e-07     5.40747773e-04     0.00000000e+00    
           1.11897475e-06     5.41929156e-04     0.00000000e+00    
           2.69099496e-06     5.43512404e-04     0.00000000e+00    
           4.11163455e-06     5.45897696e-04     0.00000000e+00    
           5.14378280e-06     5.48721873e-04     0.00000000e+00    
           5.53789141e-06     5.51926321e-04     0.00000000e+00    
           4.38543429e-06     5.56538347e-04     0.00000000e+00    
           3.20989579e-06     5.57911000e-04     0.00000000e+00    
           1.46632613e-06     5.59240929e-04     0.00000000e+00    
          -8.37520304e-07     5.60211251e-04     0.00000000e+00    
          -3.38821997e-06     5.60717832e-04     0.00000000e+00    
          -6.34401113e-06     5.60742395e-04     0.00000000e+00    
          -8.87657279e-06     5.59794193e-04     0.00000000e+00    
           7.88712059e-04     5.57229447e-04     0.00000000e+00    
           7.88287492e-04     5.55553881e-04     0.00000000e+00    
           7.87679979e-04     5.52611018e-04     0.00000000e+00    
           7.87490804e-04     5.49376360e-04     0.00000000e+00    
           7.88000121e-04     5.46014402e-04     0.00000000e+00    
           7.88900477e-04     5.43795526e-04     0.00000000e+00    
           7.89930404e-04     5.42620895e-04     0.00000000e+00    
           7.91311089e-04     5.41684625e-04     0.00000000e+00    
           1.04512910e-04     7.90998805e-04     0.00000000e+00    
           1.03059676e-04     7.88245408e-04     0.00000000e+00    
           1.02178819e-04     7.85940909e-04     0.00000000e+00    
           1.01857855e-04     7.83453695e-04     0.00000000e+00    
           1.02423561e-04     7.80783768e-04     0.00000000e+00    
           1.03992745e-04     7.78132293e-04     0.00000000e+00    
           1.06309941e-04     7.75814173e-04     0.00000000e+00    
           1.11652655e-04     7.72835396e-04     0.00000000e+00    
           1.13818882e-04     7.72155938e-04     0.00000000e+00    
           1.16177522e-04     7.72072352e-04     0.00000000e+00    
           1.18927899e-04     7.72697327e-04     0.00000000e+00    
           1.21715988e-04     7.74917193e-04     0.00000000e+00    
           1.23617137e-04     7.77382171e-04     0.00000000e+00    
           1.24816506e-04     7.80031725e-04     0.00000000e+00    
           1.24731581e-04    -1.30972494e-05     0.00000000e+00    
           1.23975507e-04    -9.96600829e-06     0.00000000e+00    
           1.22794387e-04    -7.42512520e-06     0.00000000e+00    
           1.20853780e-04    -5.19713558e-06     0.00000000e+00    
           1.18675387e-04    -3.82488952e-06     0.00000000e+00    
           1.16699295e-04    -2.88564593e-06     0.00000000e+00    
           1.14685063e-04    -2.34809522e-06     0.00000000e+00    
           1.12356349e-04    -2.62048547e-06     0.00000000e+00    
           1.09404362e-04    -4.00247472e-06     0.00000000e+00    
           2.75047234e-04     7.52209511e-04     0.00000000e+00    
           2.72687990e-04     7.50194304e-04     0.00000000e+00    
           2.71055993e-04     7.47894577e-04     0.00000000e+00    
           2.70120625e-04     7.44814810e-04     0.00000000e+00    
           2.70242512e-04     7.41851632e-04     0.00000000e+00    
           2.70570192e-04     7.39839452e-04     0.00000000e+00    
           2.71344034e-04     7.37993862e-04     0.00000000e+00    
           2.72573525e-04     7.36414106e-04     0.00000000e+00    
           2.78972118e-04     7.34402973e-04     0.00000000e+00    
           2.82579887e-04     7.34349422e-04     0.00000000e+00    
           2.85823218e-04     7.34962523e-04     0.00000000e+00    
           2.88307958e-04     7.35763693e-04     0.00000000e+00    
           2.90148717e-04     7.36430811e-04     0.00000000e+00    
           2.91879027e-04     7.37489201e-04     0.00000000e+00    
           2.93114572e-04     7.39228853e-04     0.00000000e+00    
           2.93662626e-04     7.41981785e-04     0.00000000e+00    
           2.91707722e-04    -5.15323954e-05     0.00000000e+00    
           2.89540243e-04    -4.88914884e-05     0.00000000e+00    
           2.86955532e-04    -4.69277111e-05     0.00000000e+00    
           2.84022070e-04    -4.58155373e-05     0.00000000e+00    
           2.81143148e-04    -4.55401132e-05     0.00000000e+00    
           7.41661235e-04     1.25990686e-04     0.00000000e+00    
           7.41521362e-04     1.27762280e-04     0.00000000e+00    
           7.40787887e-04     1.29712600e-04     0.00000000e+00    
           7.38162897e-04     1.32306799e-04     0.00000000e+00    
           7.34935922e-04     1.34311980e-04     0.00000000e+00    
           7.32210465e-04     1.35170645e-04     0.00000000e+00    
           7.30371918e-04     1.36016242e-04     0.00000000e+00    
           7.28654210e-04     1.36209565e-04     0.00000000e+00    
           7.27193721e-04     1.35975992e-04     0.00000000e+00    
           7.25305639e-04     1.34914648e-04     0.00000000e+00    
           7.23610108e-04     1.32684800e-04     0.00000000e+00    
           7.22249213e-04     1.26378931e-04     0.00000000e+00    
           7.22683733e-04     1.23051563e-04     0.00000000e+00    
           7.23758189e-04     1.20270735e-04     0.00000000e+00    
           7.25299353e-04     1.18038806e-04     0.00000000e+00    
           7.27103325e-04     1.16564945e-04     0.00000000e+00    
           7.28795771e-04     1.15604169e-04     0.00000000e+00    
           7.30638101e-04     1.15058014e-04     0.00000000e+00    
           7.32877408e-04     1.15203460e-04     0.00000000e+00    
           7.35610083e-04     1.16482559e-04     0.00000000e+00    
           7.38117087e-04     1.18752097e-04     0.00000000e+00    
           7.40200805e-04     1.21402198e-04     0.00000000e+00    
           7.35301874e-04     7.03502214e-04     0.00000000e+00    
           7.32942368e-04     7.05332321e-04     0.00000000e+00    
           7.30368949e-04     7.06642692e-04     0.00000000e+00    
           7.28174404e-04     7.06936466e-04     0.00000000e+00    
           7.26069382e-04     7.06779945e-04     0.00000000e+00    
           7.23365229e-04     7.05830113e-04     0.00000000e+00    
           7.20536860e-04     7.03472411e-04     0.00000000e+00    
           7.18343654e-04     7.01042823e-04     0.00000000e+00    
           7.17058429e-04     6.98922726e-04     0.00000000e+00    
           7.16353476e-04     6.94366870e-04     0.00000000e+00    
           7.17195158e-04     6.91613473e-04     0.00000000e+00    
           7.18659139e-04     6.89288951e-04     0.00000000e+00    
           7.20651238e-04     6.87667343e-04     0.00000000e+00    
           7.22990255e-04     6.86474727e-04     0.00000000e+00    
           7.26175087e-04     6.85616571e-04     0.00000000e+00    
           7.29119580e-04     6.85450039e-04     0.00000000e+00    
           7.31179782e-04     6.85490260e-04     0.00000000e+00    
           7.32874963e-04     6.86265354e-04     0.00000000e+00    
          -6.41439983e-05     6.89568871e-04     0.00000000e+00    
          -6.29178467e-05     6.92359288e-04     0.00000000e+00    
          -6.21208237e-05     6.95108087e-04     0.00000000e+00    
          -6.20265782e-05     6.97607116e-04     0.00000000e+00    
          -6.22667940e-05     6.99434138e-04     0.00000000e+00    
           1.78423361e-04     6.41051389e-04     0.00000000e+00    
           1.78578121e-04     6.44413172e-04     0.00000000e+00    
           1.78495131e-04     6.46576693e-04     0.00000000e+00    
           1.78083035e-04     6.48607616e-04     0.00000000e+00    
           1.76891859e-04     6.50587841e-04     0.00000000e+00    
           1.74333880e-04     6.52462302e-04     0.00000000e+00    
           1.71271167e-04     6.53391471e-04     0.00000000e+00    
           1.68811719e-04     6.53685944e-04     0.00000000e+00    
           1.66608064e-04     6.53435476e-04     0.00000000e+00    
           1.64680940e-04     6.52726099e-04     0.00000000e+00    
           1.62125842e-04     6.50738832e-04     0.00000000e+00    
           1.60163443e-04     6.47457433e-04     0.00000000e+00    
           1.57969058e-04     6.41999184e-04     0.00000000e+00    
           1.57814065e-04     6.39737409e-04     0.00000000e+00    
           1.58406692e-04     6.37313467e-04     0.00000000e+00    
           1.60128999e-04     6.34767523e-04     0.00000000e+00    
           1.62333105e-04     6.32704876e-04     0.00000000e+00    
           1.64663827e-04     6.31283212e-04     0.00000000e+00    
           1.66247599e-04     6.30412367e-04     0.00000000e+00    
           1.67734106e-04     6.29828952e-04     0.00000000e+00    
           1.69762323e-04     6.29885297e-04     0.00000000e+00    
           1.72084663e-04     6.30852184e-04     0.00000000e+00    
           1.74358065e-04     6.32710813e-04     0.00000000e+00    
           1.76243600e-04     6.35092380e-04     0.00000000e+00    
           5.75212762e-04     7.01710815e-04     0.00000000e+00    
           5.72242076e-04     7.03562982e-04     0.00000000e+00    
           5.68868301e-04     7.04441220e-04     0.00000000e+00    
           5.65473107e-04     7.04264559e-04     0.00000000e+00    
           5.62073779e-04     7.03138881e-04     0.00000000e+00    
           5.59086504e-04     7.01225537e-04     0.00000000e+00    
           5.56749001e-04     6.98653865e-04     0.00000000e+00    
           5.55504987e-04     6.95667113e-04     0.00000000e+00    
           5.55302831e-04     6.92814065e-04     0.00000000e+00    
           5.56363957e-04     6.90652116e-04     0.00000000e+00    
           5.60191576e-04     6.87946391e-04     0.00000000e+00    
           5.62776870e-04     6.86391606e-04     0.00000000e+00    
           5.66211180e-04     6.85173727e-04     0.00000000e+00    
           5.70166565e-04     6.84320054e-04     0.00000000e+00    
           5.73481957e-04     6.84798462e-04     0.00000000e+00    
           5.75564627e-04     6.86213956e-04     0.00000000e+00    
           5.77107072e-04     6.88156288e-04     0.00000000e+00    
           5.78786072e-04     6.91069814e-04     0.00000000e+00    
           5.79342770e-04     6.94780378e-04     0.00000000e+00    
           5.78804174e-04     6.97724230e-04     0.00000000e+00    
           4.03994869e-04     2.69600016e-04     0.00000000e+00    
           4.02620819e-04     2.70940247e-04     0.00000000e+00    
           4.00708581e-04     2.72503326e-04     0.00000000e+00    
           3.97579191e-04     2.73770187e-04     0.00000000e+00    
           3.95062671e-04     2.73926795e-04     0.00000000e+00    
           3.93138704e-04     2.73297337e-04     0.00000000e+00    
           3.91156849e-04     2.72040139e-04     0.00000000e+00    
           3.88811954e-04     2.70050688e-04     0.00000000e+00    
           3.86501692e-04     2.67143914e-04     0.00000000e+00    
           3.85299063e-04     2.63887981e-04     0.00000000e+00    
           3.84999614e-04     2.61074601e-04     0.00000000e+00    
           3.86112981e-04     2.58034182e-04     0.00000000e+00    
           3.87177075e-04     2.56956642e-04     0.00000000e+00    
           3.88656306e-04     2.55985709e-04     0.00000000e+00    
           3.90838657e-04     2.55109509e-04     0.00000000e+00    
           3.93587397e-04     2.54678918e-04     0.00000000e+00    
           3.96479096e-04     2.54980085e-04     0.00000000e+00    
           3.99148441e-04     2.56148342e-04     0.00000000e+00    
           4.01490048e-04     2.57937150e-04     0.00000000e+00    
           4.03464917e-04     2.60429544e-04     0.00000000e+00    
           4.04679100e-04     2.63114838e-04     0.00000000e+00    
           4.05110273e-04     2.65852053e-04     0.00000000e+00    
           7.09568267e-05     1.44371676e-04     0.00000000e+00    
           7.36077200e-05     1.42498087e-04     0.00000000e+00    
           7.63969365e-05     1.41306125e-04     0.00000000e+00    
           7.86783276e-05     1.40925942e-04     0.00000000e+00    
           8.05962700e-05     1.41024662e-04     0.00000000e+00    
           8.23355440e-05     1.41638593e-04     0.00000000e+00    
           8.46280964e-05     1.43205980e-04     0.00000000e+00    
           8.65842230e-05     1.46259219e-04     0.00000000e+00    
           8.75480546e-05     1.48635416e-04     0.00000000e+00    
           8.75985934e-05     1.52469278e-04     0.00000000e+00    
           8.65609400e-05     1.54814741e-04     0.00000000e+00    
           8.44764290e-05     1.57424467e-04     0.00000000e+00    
           8.20653731e-05     1.59403819e-04     0.00000000e+00    
           8.01591596e-05     1.60253243e-04     0.00000000e+00    
           7.86284654e-05     1.60628580e-04     0.00000000e+00    
           7.68134487e-05     1.60575160e-04     0.00000000e+00    
           7.47357626e-05     1.59931893e-04     0.00000000e+00    
           7.24193887e-05     1.58536801e-04     0.00000000e+00    
           8.68765172e-04     1.53817629e-04     0.00000000e+00    
           8.67898343e-04     1.50939057e-04     0.00000000e+00    
           8.67934374e-04     1.49042622e-04     0.00000000e+00    
           8.68383504e-04     1.47545739e-04     0.00000000e+00    
           8.30797362e-05     4.00321092e-04     0.00000000e+00    
           8.16401516e-05     4.01608530e-04     0.00000000e+00    
           7.96496824e-05     4.02995065e-04     0.00000000e+00    
           7.65346558e-05     4.04242659e-04     0.00000000e+00    
           7.30730098e-05     4.04948543e-04     0.00000000e+00    
           7.01161480e-05     4.04764112e-04     0.00000000e+00    
           6.80582525e-05     4.03867074e-04     0.00000000e+00    
           6.63845858e-05     4.02596808e-04     0.00000000e+00    
           6.47265842e-05     4.00438701e-04     0.00000000e+00    
           6.38613783e-05     3.97832657e-04     0.00000000e+00    
           6.40513172e-05     3.95232113e-04     0.00000000e+00    
           6.64262188e-05     3.90024099e-04     0.00000000e+00    
           6.85858977e-05     3.87323904e-04     0.00000000e+00    
           7.12989058e-05     3.85210005e-04     0.00000000e+00    
           7.37805894e-05     3.84337676e-04     0.00000000e+00    
           7.57630187e-05     3.84240207e-04     0.00000000e+00    
           7.74685759e-05     3.84639396e-04     0.00000000e+00    
           7.90327103e-05     3.85525229e-04     0.00000000e+00    
           8.08403056e-05     3.87138134e-04     0.00000000e+00    
           8.24339295e-05     3.89522786e-04     0.00000000e+00    