<?xml version="1.0"?>
<VTKFile type="UnstructuredGrid" version="0.1">
  <UnstructuredGrid>
    <Piece NumberOfPoints="1034" NumberOfCells="1614">
      <Points>
        <DataArray type="Float32" NumberOfComponents="3">
           5.21582007e-01     5.11657000e-01     0.00000000e+00    
           5.07319987e-01     5.11657000e-01     0.00000000e+00    
           4.65243995e-01     5.17907977e-01     0.00000000e+00    
           4.65243995e-01     5.04921973e-01     0.00000000e+00    
           4.75246996e-01     5.11415005e-01     0.00000000e+00    
           5.33852994e-01     5.04921973e-01     0.00000000e+00    
           5.33852994e-01     5.17907977e-01     0.00000000e+00    
           4.83779997e-01     5.34618974e-01     0.00000000e+00    
           4.68984991e-01     5.34618974e-01     0.00000000e+00    
           4.76381987e-01     5.23841977e-01     0.00000000e+00    
           4.68984991e-01     4.66010004e-01     0.00000000e+00    
           4.83779997e-01     4.66010004e-01     0.00000000e+00    
           4.99920011e-01     5.34618974e-01     0.00000000e+00    
           4.89203990e-01     5.34618974e-01     0.00000000e+00    
           4.94562000e-01     5.22280991e-01     0.00000000e+00    
           4.89203990e-01     4.66010004e-01     0.00000000e+00    
           4.99920011e-01     4.66010004e-01     0.00000000e+00    
           5.32517016e-01     4.74112004e-01     0.00000000e+00    
           5.17961025e-01     4.74112004e-01     0.00000000e+00    
           5.33852994e-01     5.19801974e-01     0.00000000e+00    
           5.33852994e-01     5.29603004e-01     0.00000000e+00    
           5.19536972e-01     5.24702013e-01     0.00000000e+00    
           4.65243995e-01     5.29603004e-01     0.00000000e+00    
           4.65243995e-01     5.19801974e-01     0.00000000e+00    
           4.92487997e-01     5.17117977e-01     0.00000000e+00    
           4.76904988e-01     5.17117977e-01     0.00000000e+00    
           5.17996013e-01     5.27033985e-01     0.00000000e+00    
           5.04473984e-01     5.27033985e-01     0.00000000e+00    
           5.08446991e-01     4.83435005e-01     0.00000000e+00    
           4.94414002e-01     4.83435005e-01     0.00000000e+00    
           4.65243995e-01     4.83101994e-01     0.00000000e+00    
           4.65243995e-01     4.74415004e-01     0.00000000e+00    
           4.78336990e-01     4.78758007e-01     0.00000000e+00    
           5.33852994e-01     4.74415004e-01     0.00000000e+00    
           5.33852994e-01     4.83101994e-01     0.00000000e+00    
           4.80668008e-01     4.95810986e-01     0.00000000e+00    
           4.66084987e-01     4.95810986e-01     0.00000000e+00    
           4.93930012e-01     4.79214013e-01     0.00000000e+00    
           4.78967011e-01     4.79214013e-01     0.00000000e+00    
           5.09284973e-01     4.97658014e-01     0.00000000e+00    
           4.95503992e-01     4.97658014e-01     0.00000000e+00    
           5.33011973e-01     5.01751006e-01     0.00000000e+00    
           5.17829001e-01     5.01751006e-01     0.00000000e+00    
           4.95451003e-01     5.00564992e-01     0.00000000e+00    
           4.80922014e-01     5.00564992e-01     0.00000000e+00    
           5.25367022e-01     4.88312006e-01     0.00000000e+00    
           5.09521008e-01     4.88312006e-01     0.00000000e+00    
           4.65243995e-01     5.34618974e-01     0.00000000e+00    
           4.65243995e-01     4.66010004e-01     0.00000000e+00    
           5.33852994e-01     4.66010004e-01     0.00000000e+00    
           5.33852994e-01     5.34618974e-01     0.00000000e+00    
           5.21338999e-01     5.13502657e-01     0.00000000e+00    
           5.20626605e-01     5.15222490e-01     0.00000000e+00    
           5.19493401e-01     5.16699374e-01     0.00000000e+00    
           5.18016517e-01     5.17832637e-01     0.00000000e+00    
           5.16296625e-01     5.18545032e-01     0.00000000e+00    
           5.14451027e-01     5.18787980e-01     0.00000000e+00    
           5.12605369e-01     5.18545032e-01     0.00000000e+00    
           5.10885477e-01     5.17832637e-01     0.00000000e+00    
           5.09408593e-01     5.16699374e-01     0.00000000e+00    
           5.08275390e-01     5.15222490e-01     0.00000000e+00    
           5.07562995e-01     5.13502657e-01     0.00000000e+00    
           5.07562995e-01     5.09811342e-01     0.00000000e+00    
           5.08275390e-01     5.08091509e-01     0.00000000e+00    
           5.09408593e-01     5.06614625e-01     0.00000000e+00    
           5.10885477e-01     5.05481362e-01     0.00000000e+00    
           5.12605369e-01     5.04768968e-01     0.00000000e+00    
           5.14451027e-01     5.04526019e-01     0.00000000e+00    
           5.16296625e-01     5.04768968e-01     0.00000000e+00    
           5.18016517e-01     5.05481362e-01     0.00000000e+00    
           5.19493401e-01     5.06614625e-01     0.00000000e+00    
           5.20626605e-01     5.08091509e-01     0.00000000e+00    
           5.21338999e-01     5.09811342e-01     0.00000000e+00    
           4.66931671e-01     5.04409373e-01     0.00000000e+00    
           4.68693614e-01     5.04328012e-01     0.00000000e+00    
           4.70421344e-01     5.04682958e-01     0.00000000e+00    
           4.72008497e-01     5.05452335e-01     0.00000000e+00    
           4.73357379e-01     5.06588817e-01     0.00000000e+00    
           4.74384934e-01     5.08022368e-01     0.00000000e+00    
           4.75027919e-01     5.09664834e-01     0.00000000e+00    
           4.75028187e-01     5.13165236e-01     0.00000000e+00    
           4.74385172e-01     5.14807761e-01     0.00000000e+00    
           4.73357558e-01     5.16241372e-01     0.00000000e+00    
           4.72008646e-01     5.17377913e-01     0.00000000e+00    
           4.70421433e-01     5.18147290e-01     0.00000000e+00    
           4.68693614e-01     5.18502235e-01     0.00000000e+00    
           4.66931641e-01     5.18420875e-01     0.00000000e+00    
           5.32303810e-01     5.16964078e-01     0.00000000e+00    
           5.31043947e-01     5.15658796e-01     0.00000000e+00    
           5.30155540e-01     5.14077127e-01     0.00000000e+00    
           5.29696345e-01     5.12322068e-01     0.00000000e+00    
           5.29696345e-01     5.10507941e-01     0.00000000e+00    
           5.30155540e-01     5.08752882e-01     0.00000000e+00    
           5.31043947e-01     5.07171214e-01     0.00000000e+00    
           5.32303810e-01     5.05865932e-01     0.00000000e+00    
           4.68517244e-01     5.32760799e-01     0.00000000e+00    
           4.68509018e-01     5.30844629e-01     0.00000000e+00    
           4.68960851e-01     5.28982460e-01     0.00000000e+00    
           4.69846308e-01     5.27283132e-01     0.00000000e+00    
           4.71113682e-01     5.25845945e-01     0.00000000e+00    
           4.72688884e-01     5.24754822e-01     0.00000000e+00    
           4.74479854e-01     5.24073541e-01     0.00000000e+00    
           4.78284091e-01     5.24073601e-01     0.00000000e+00    
           4.80075032e-01     5.24754822e-01     0.00000000e+00    
           4.81650203e-01     5.25845885e-01     0.00000000e+00    
           4.82917547e-01     5.27283013e-01     0.00000000e+00    
           4.83803004e-01     5.28982282e-01     0.00000000e+00    
           4.84254897e-01     5.30844331e-01     0.00000000e+00    
           4.84246761e-01     5.32760441e-01     0.00000000e+00    
           4.82887864e-01     4.67691004e-01     0.00000000e+00    
           4.81620818e-01     4.69110936e-01     0.00000000e+00    
           4.80051905e-01     4.70188022e-01     0.00000000e+00    
           4.78271484e-01     4.70860153e-01     0.00000000e+00    
           4.76382166e-01     4.71088618e-01     0.00000000e+00    
           4.74492878e-01     4.70860243e-01     0.00000000e+00    
           4.72712427e-01     4.70188200e-01     0.00000000e+00    
           4.71143454e-01     4.69111174e-01     0.00000000e+00    
           4.69876349e-01     4.67691302e-01     0.00000000e+00    
           4.88103986e-01     5.33086061e-01     0.00000000e+00    
           4.87431526e-01     5.31323195e-01     0.00000000e+00    
           4.87231195e-01     5.29447019e-01     0.00000000e+00    
           4.87516224e-01     5.27581930e-01     0.00000000e+00    
           4.88267750e-01     5.25851250e-01     0.00000000e+00    
           4.89436030e-01     5.24369657e-01     0.00000000e+00    
           4.90943670e-01     5.23235261e-01     0.00000000e+00    
           4.92690891e-01     5.22523046e-01     0.00000000e+00    
           4.96432930e-01     5.22523701e-01     0.00000000e+00    
           4.98180002e-01     5.23235798e-01     0.00000000e+00    
           4.99687493e-01     5.24370134e-01     0.00000000e+00    
           5.00855684e-01     5.25851607e-01     0.00000000e+00    
           5.01607120e-01     5.27582109e-01     0.00000000e+00    
           5.01892149e-01     5.29447079e-01     0.00000000e+00    
           5.01691818e-01     5.31323016e-01     0.00000000e+00    
           5.01019418e-01     5.33085763e-01     0.00000000e+00    
           4.98371124e-01     4.67269689e-01     0.00000000e+00    
           4.96539861e-01     4.68064904e-01     0.00000000e+00    
           4.94562000e-01     4.68336672e-01     0.00000000e+00    
           4.92584139e-01     4.68064904e-01     0.00000000e+00    
           4.90752876e-01     4.67269689e-01     0.00000000e+00    
           5.32269001e-01     4.75995690e-01     0.00000000e+00    
           5.31541944e-01     4.77750987e-01     0.00000000e+00    
           5.30385315e-01     4.79258329e-01     0.00000000e+00    
           5.28877974e-01     4.80414927e-01     0.00000000e+00    
[...]
      <PointData>
        <DataArray type="Float32" Name="Displacement" NumberOfComponents="3">
           1.52609043e-03     1.36974896e-03     0.00000000e+00    
           1.50500692e-03     1.35616306e-03     0.00000000e+00    
           3.44335822e-05     1.37670327e-03     0.00000000e+00    
           4.07484804e-05     1.35880942e-03     0.00000000e+00    
           5.30019279e-05     1.37306016e-03     0.00000000e+00    
           2.09074840e-03     1.35880942e-03     0.00000000e+00    
           2.08443357e-03     1.37670327e-03     0.00000000e+00    
           3.07669863e-04     1.98239484e-03     0.00000000e+00    
           2.86137452e-04     1.99293694e-03     0.00000000e+00    
           2.89935182e-04     1.97172002e-03     0.00000000e+00    
           2.86137452e-04    -5.70631564e-05     0.00000000e+00    
           3.07669863e-04    -6.76050913e-05     0.00000000e+00    
           7.89316779e-04     1.92014815e-03     0.00000000e+00    
           7.73347390e-04     1.91486289e-03     0.00000000e+00    
           7.86807970e-04     1.89951295e-03     0.00000000e+00    
           7.73347390e-04    -1.35137059e-04     0.00000000e+00    
           7.89316779e-04    -1.29851862e-04     0.00000000e+00    
           1.83901470e-03     2.73785408e-04     0.00000000e+00    
           1.81787938e-03     2.72138161e-04     0.00000000e+00    
           1.86695566e-03     1.75085000e-03     0.00000000e+00    
           1.86818000e-03     1.76531111e-03     0.00000000e+00    
           1.84706936e-03     1.75930094e-03     0.00000000e+00    
          -1.81819982e-04     1.76531111e-03     0.00000000e+00    
          -1.83044380e-04     1.75085000e-03     0.00000000e+00    
           5.06695535e-04     1.56304380e-03     0.00000000e+00    
           4.83980635e-04     1.56746607e-03     0.00000000e+00    
           1.41770393e-03     1.80670945e-03     0.00000000e+00    
           1.39804441e-03     1.80473702e-03     0.00000000e+00    
           1.05893833e-03     6.03155699e-04     0.00000000e+00    
           1.03887729e-03     5.99236926e-04     0.00000000e+00    
           1.57274568e-04     3.88503802e-04     0.00000000e+00    
           1.60401542e-04     3.76488082e-04     0.00000000e+00    
           1.77728711e-04     3.86669097e-04     0.00000000e+00    
           2.21040146e-03     3.76488082e-04     0.00000000e+00    
           2.20727455e-03     3.88503802e-04     0.00000000e+00    
           2.16127868e-04     9.31713381e-04     0.00000000e+00    
           1.95082524e-04     9.44617263e-04     0.00000000e+00    
           5.61614579e-04     4.16077499e-04     0.00000000e+00    
           5.40416513e-04     4.10960522e-04     0.00000000e+00    
           1.09789043e-03     9.08395567e-04     0.00000000e+00    
           1.07799610e-03     9.25395114e-04     0.00000000e+00    
           1.80837302e-03     1.11087842e-03     0.00000000e+00    
           1.78610987e-03     1.11081102e-03     0.00000000e+00    
           6.26560068e-04     1.04850426e-03     0.00000000e+00    
           6.05957001e-04     1.05571188e-03     0.00000000e+00    
           1.56286405e-03     7.16294628e-04     0.00000000e+00    
           1.53962674e-03     7.11491564e-04     0.00000000e+00    
           0.00000000e+00     2.05000001e-03     0.00000000e+00    
           0.00000000e+00     0.00000000e+00     0.00000000e+00    
           2.05000001e-03     0.00000000e+00     0.00000000e+00    
           2.05000001e-03     2.05000001e-03     0.00000000e+00    
           1.52383326e-03     1.37281441e-03     0.00000000e+00    
           1.52106490e-03     1.37464388e-03     0.00000000e+00    
           1.51778653e-03     1.37587695e-03     0.00000000e+00    
           1.51437800e-03     1.37620582e-03     0.00000000e+00    
           1.51106110e-03     1.37531536e-03     0.00000000e+00    
           1.50816166e-03     1.37360441e-03     0.00000000e+00    
           1.50616828e-03     1.37140881e-03     0.00000000e+00    
           1.50460738e-03     1.36894698e-03     0.00000000e+00    
           1.50325487e-03     1.36607361e-03     0.00000000e+00    
           1.50291948e-03     1.36254448e-03     0.00000000e+00    
           1.50341948e-03     1.35925144e-03     0.00000000e+00    
           1.50708423e-03     1.35341240e-03     0.00000000e+00    
           1.51012489e-03     1.35159399e-03     0.00000000e+00    
           1.51325436e-03     1.35042565e-03     0.00000000e+00    
           1.51684636e-03     1.35006243e-03     0.00000000e+00    
           1.52044231e-03     1.35102216e-03     0.00000000e+00    
           1.52380567e-03     1.35282555e-03     0.00000000e+00    
           1.52634096e-03     1.35551125e-03     0.00000000e+00    
           1.52775168e-03     1.35877356e-03     0.00000000e+00    
           1.52797834e-03     1.36163435e-03     0.00000000e+00    
           1.52755168e-03     1.36416336e-03     0.00000000e+00    
           1.52689742e-03     1.36679714e-03     0.00000000e+00    
           4.38178249e-05     1.35826750e-03     0.00000000e+00    
           4.67954160e-05     1.35909265e-03     0.00000000e+00    
           4.89667364e-05     1.36050268e-03     0.00000000e+00    
           5.08522935e-05     1.36224588e-03     0.00000000e+00    
           5.24808893e-05     1.36457407e-03     0.00000000e+00    
           5.34731880e-05     1.36721064e-03     0.00000000e+00    
           5.35618528e-05     1.37028657e-03     0.00000000e+00    
           5.15746906e-05     1.37550663e-03     0.00000000e+00    
           4.98438494e-05     1.37742737e-03     0.00000000e+00    
           4.75938250e-05     1.37909641e-03     0.00000000e+00    
           4.50302759e-05     1.38013810e-03     0.00000000e+00    
           4.21918485e-05     1.38046022e-03     0.00000000e+00    
           3.90873502e-05     1.38017896e-03     0.00000000e+00    
           3.63073123e-05     1.37856079e-03     0.00000000e+00    
           2.08328222e-03     1.37475238e-03     0.00000000e+00    
           2.08231783e-03     1.37260230e-03     0.00000000e+00    
           2.08149338e-03     1.36961078e-03     0.00000000e+00    
           2.08160956e-03     1.36653869e-03     0.00000000e+00    
           2.08300422e-03     1.36348279e-03     0.00000000e+00    
           2.08494789e-03     1.36135018e-03     0.00000000e+00    
           2.08680192e-03     1.36027182e-03     0.00000000e+00    
           2.08866922e-03     1.35954819e-03     0.00000000e+00    
           2.83892849e-04     1.99023192e-03     0.00000000e+00    
           2.82609020e-04     1.98717578e-03     0.00000000e+00    
           2.82148336e-04     1.98413339e-03     0.00000000e+00    
           2.82225781e-04     1.98099785e-03     0.00000000e+00    
           2.83136731e-04     1.97808095e-03     0.00000000e+00    
           2.84835114e-04     1.97531958e-03     0.00000000e+00    
           2.87305709e-04     1.97307020e-03     0.00000000e+00    
           2.92786397e-04     1.97099592e-03     0.00000000e+00    
           2.95256934e-04     1.97074213e-03     0.00000000e+00    
           2.97909399e-04     1.97086134e-03     0.00000000e+00    
           3.00871034e-04     1.97154540e-03     0.00000000e+00    
           3.03700275e-04     1.97362434e-03     0.00000000e+00    
           3.05750757e-04     1.97618827e-03     0.00000000e+00    
           3.07195238e-04     1.97908795e-03     0.00000000e+00    
           3.07418173e-04    -6.44541724e-05     0.00000000e+00    
           3.06496921e-04    -6.13010707e-05     0.00000000e+00    
           3.04724555e-04    -5.87162249e-05     0.00000000e+00    
           3.02311906e-04    -5.64668153e-05     0.00000000e+00    
           2.99720909e-04    -5.52859528e-05     0.00000000e+00    
           2.97273073e-04    -5.45128460e-05     0.00000000e+00    
           2.94730416e-04    -5.39841312e-05     0.00000000e+00    
           2.91890756e-04    -5.41525551e-05     0.00000000e+00    
           2.88723968e-04    -5.52271886e-05     0.00000000e+00    
           7.72529631e-04     1.91190746e-03     0.00000000e+00    
           7.72423693e-04     1.90886902e-03     0.00000000e+00    
           7.73179403e-04     1.90597319e-03     0.00000000e+00    
           7.74560380e-04     1.90306269e-03     0.00000000e+00    
           7.77102367e-04     1.90101133e-03     0.00000000e+00    
           7.79382244e-04     1.90014765e-03     0.00000000e+00    
           7.81601120e-04     1.89965009e-03     0.00000000e+00    
           7.83882919e-04     1.89931353e-03     0.00000000e+00    
           7.89788901e-04     1.90045813e-03     0.00000000e+00    
           7.92332808e-04     1.90248212e-03     0.00000000e+00    
           7.94204825e-04     1.90515374e-03     0.00000000e+00    
           7.95225496e-04     1.90795329e-03     0.00000000e+00    
           7.95214379e-04     1.91083259e-03     0.00000000e+00    
           7.94718973e-04     1.91343657e-03     0.00000000e+00    
           7.93699233e-04     1.91608875e-03     0.00000000e+00    
           7.91736238e-04     1.91834266e-03     0.00000000e+00    
           7.86450866e-04    -1.28812550e-04     0.00000000e+00    
           7.83331052e-04    -1.28506974e-04     0.00000000e+00    
           7.80220784e-04    -1.28930042e-04     0.00000000e+00    
           7.77303998e-04    -1.30402230e-04     0.00000000e+00    
           7.75129709e-04    -1.32550907e-04     0.00000000e+00    
           1.83829805e-03     2.75991566e-04     0.00000000e+00    
           1.83739956e-03     2.77806044e-04     0.00000000e+00    
           1.83612166e-03     2.80003704e-04     0.00000000e+00    
           1.83356716e-03     2.81975750e-04     0.00000000e+00    
           1.83044386e-03     2.83027068e-04     0.00000000e+00    
           1.82747690e-03     2.83038535e-04     0.00000000e+00    
           1.82494789e-03     2.82293651e-04     0.00000000e+00    
           1.82299432e-03     2.81266577e-04     0.00000000e+00    
           1.82140688e-03     2.79997388e-04     0.00000000e+00    
           1.81948184e-03     2.78097374e-04     0.00000000e+00    
           1.81817962e-03     2.75396043e-04     0.00000000e+00    
           1.81836355e-03     2.69270269e-04     0.00000000e+00    
           1.81973923e-03     2.66344607e-04     0.00000000e+00    
           1.82177790e-03     2.64079252e-04     0.00000000e+00    
           1.82429922e-03     2.62668647e-04     0.00000000e+00    
           1.82692753e-03     2.62111018e-04     0.00000000e+00    
           1.82931032e-03     2.62085523e-04     0.00000000e+00    
           1.83172699e-03     2.62440968e-04     0.00000000e+00    
           1.83432444e-03     2.63372553e-04     0.00000000e+00    
           1.83666300e-03     2.65367620e-04     0.00000000e+00    
           1.83833239e-03     2.67993222e-04     0.00000000e+00    
           1.83924544e-03     2.70846474e-04     0.00000000e+00    
           1.86631235e-03     1.76735991e-03     0.00000000e+00    
           1.86406658e-03     1.76903396e-03     0.00000000e+00    
           1.86139054e-03     1.77024875e-03     0.00000000e+00    
           1.85835816e-03     1.77052710e-03     0.00000000e+00    
           1.85525208e-03     1.77019835e-03     0.00000000e+00    
           1.85230596e-03     1.76891591e-03     0.00000000e+00    
           1.85004133e-03     1.76670495e-03     0.00000000e+00    
           1.84839347e-03     1.76421041e-03     0.00000000e+00    
           1.84750860e-03     1.76172436e-03     0.00000000e+00    
           1.84701080e-03     1.75649603e-03     0.00000000e+00    
           1.84786390e-03     1.75374374e-03     0.00000000e+00    
           1.84945879e-03     1.75102020e-03     0.00000000e+00    
           1.85186090e-03     1.74898130e-03     0.00000000e+00    
           1.85434869e-03     1.74766756e-03     0.00000000e+00    
           1.85752823e-03     1.74695789e-03     0.00000000e+00    
           1.86048681e-03     1.74717675e-03     0.00000000e+00    
           1.86300185e-03     1.74810644e-03     0.00000000e+00    
           1.86502398e-03     1.74931029e-03     0.00000000e+00    
          -1.81385127e-04     1.75286201e-03     0.00000000e+00    
          -1.80198942e-04     1.75529474e-03     0.00000000e+00    
          -1.79761555e-04     1.75794330e-03     0.00000000e+00    
          -1.79993105e-04     1.76070654e-03     0.00000000e+00    
          -1.80692587e-04     1.76303892e-03     0.00000000e+00    
           5.06758632e-04     1.56606233e-03     0.00000000e+00    
           5.06041513e-04     1.56899530e-03     0.00000000e+00    
           5.04727301e-04     1.57105457e-03     0.00000000e+00    
           5.03552321e-04     1.57279102e-03     0.00000000e+00    
           5.01819421e-04     1.57455320e-03     0.00000000e+00    
           4.99144720e-04     1.57616660e-03     0.00000000e+00    
           4.96121473e-04     1.57644565e-03     0.00000000e+00    
           4.93629253e-04     1.57624809e-03     0.00000000e+00    
           4.91313927e-04     1.57569267e-03     0.00000000e+00    
           4.89070255e-04     1.57480140e-03     0.00000000e+00    
           4.86524863e-04     1.57297158e-03     0.00000000e+00    
           4.84885590e-04     1.57016108e-03     0.00000000e+00    
           4.83784737e-04     1.56452600e-03     0.00000000e+00    
           4.84188291e-04     1.56184286e-03     0.00000000e+00    
           4.85189434e-04     1.55904773e-03     0.00000000e+00    
           4.86986828e-04     1.55669579e-03     0.00000000e+00    
           4.89370315e-04     1.55497540e-03     0.00000000e+00    
           4.92204330e-04     1.55396038e-03     0.00000000e+00    
           4.94618376e-04     1.55363558e-03     0.00000000e+00    
           4.96987661e-04     1.55361567e-03     0.00000000e+00    
           4.99666436e-04     1.55415316e-03     0.00000000e+00    
           5.02132461e-04     1.55556365e-03     0.00000000e+00    
           5.04321826e-04     1.55764807e-03     0.00000000e+00    
           5.05899079e-04     1.56021933e-03     0.00000000e+00    
           1.41731510e-03     1.80935976e-03     0.00000000e+00    
           1.41572801e-03     1.81193987e-03     0.00000000e+00    
           1.41344266e-03     1.81397540e-03     0.00000000e+00    
           1.41085160e-03     1.81515818e-03     0.00000000e+00    
           1.40807091e-03     1.81546365e-03     0.00000000e+00    
           1.40545180e-03     1.81515072e-03     0.00000000e+00    
           1.40280172e-03     1.81423500e-03     0.00000000e+00    
           1.40054768e-03     1.81243382e-03     0.00000000e+00    
           1.39877165e-03     1.81008503e-03     0.00000000e+00    
           1.39808317e-03     1.80731143e-03     0.00000000e+00    
           1.39852450e-03     1.80199312e-03     0.00000000e+00    
           1.40001811e-03     1.79935817e-03     0.00000000e+00    
           1.40230474e-03     1.79731566e-03     0.00000000e+00    
           1.40525063e-03     1.79577817e-03     0.00000000e+00    
           1.40842365e-03     1.79570098e-03     0.00000000e+00    
           1.41090329e-03     1.79631007e-03     0.00000000e+00    
           1.41318701e-03     1.79722218e-03     0.00000000e+00    
           1.41570787e-03     1.79895526e-03     0.00000000e+00    
           1.41714734e-03     1.80169335e-03     0.00000000e+00    
           1.41772942e-03     1.80430070e-03     0.00000000e+00    
           1.05820328e-03     6.05433772e-04     0.00000000e+00    
           1.05690386e-03     6.07538270e-04     0.00000000e+00    
           1.05504342e-03     6.09732349e-04     0.00000000e+00    
           1.05215970e-03     6.10947725e-04     0.00000000e+00    
           1.04969693e-03     6.11195748e-04     0.00000000e+00    
           1.04777829e-03     6.11048017e-04     0.00000000e+00    
           1.04562344e-03     6.10600284e-04     0.00000000e+00    
           1.04306638e-03     6.09793933e-04     0.00000000e+00    
           1.04050711e-03     6.07581285e-04     0.00000000e+00    
           1.03911641e-03     6.04765955e-04     0.00000000e+00    
           1.03855424e-03     6.01884734e-04     0.00000000e+00    
           1.03961269e-03     5.97290986e-04     0.00000000e+00    
           1.04060746e-03     5.95384277e-04     0.00000000e+00    
           1.04208512e-03     5.93461562e-04     0.00000000e+00    
           1.04427431e-03     5.91976044e-04     0.00000000e+00    
           1.04695826e-03     5.90976153e-04     0.00000000e+00    
           1.04996597e-03     5.90687501e-04     0.00000000e+00    
           1.05278986e-03     5.91503573e-04     0.00000000e+00    
           1.05527416e-03     5.92926459e-04     0.00000000e+00    
           1.05740654e-03     5.95123041e-04     0.00000000e+00    
           1.05876802e-03     5.97587263e-04     0.00000000e+00    
           1.05935615e-03     6.00439671e-04     0.00000000e+00    
           1.62536191e-04     3.74846539e-04     0.00000000e+00    
           1.65266218e-04     3.73514049e-04     0.00000000e+00    
           1.68329047e-04     3.73285584e-04     0.00000000e+00    
           1.71104897e-04     3.74129362e-04     0.00000000e+00    
           1.73245557e-04     3.75250995e-04     0.00000000e+00    
           1.75031149e-04     3.76698183e-04     0.00000000e+00    
           1.77051013e-04     3.78745463e-04     0.00000000e+00    
           1.78167000e-04     3.81918508e-04     0.00000000e+00    
           1.78187533e-04     3.84622574e-04     0.00000000e+00    
           1.77024005e-04     3.88659770e-04     0.00000000e+00    
           1.75909561e-04     3.90848087e-04     0.00000000e+00    
           1.73961045e-04     3.93064867e-04     0.00000000e+00    
           1.71424268e-04     3.94719100e-04     0.00000000e+00    
           1.68390165e-04     3.95215524e-04     0.00000000e+00    
           1.65791411e-04     3.95023933e-04     0.00000000e+00    
           1.63201184e-04     3.94393603e-04     0.00000000e+00    
           1.60875104e-04     3.92967311e-04     0.00000000e+00    
           1.58805109e-04     3.90991481e-04     0.00000000e+00    
           2.20648036e-03     3.85514984e-04     0.00000000e+00    
           2.20666779e-03     3.82339582e-04     0.00000000e+00    
           2.20772950e-03     3.79939127e-04     0.00000000e+00    
           2.20896769e-03     3.78267578e-04     0.00000000e+00    
           2.17355861e-04     9.34150070e-04     0.00000000e+00    
           2.18151050e-04     9.36867378e-04     0.00000000e+00    
           2.18205256e-04     9.40228580e-04     0.00000000e+00    
           2.16968081e-04     9.43524472e-04     0.00000000e+00    
           2.14765474e-04     9.46369255e-04     0.00000000e+00    
           2.12140192e-04     9.48498375e-04     0.00000000e+00    
           2.09270249e-04     9.49678477e-04     0.00000000e+00    
           2.06254248e-04     9.50405374e-04     0.00000000e+00    
           2.02856536e-04     9.50165559e-04     0.00000000e+00    
           1.99657617e-04     9.49060428e-04     0.00000000e+00    
           1.97124769e-04     9.47028166e-04     0.00000000e+00    
           1.93602566e-04     9.41778242e-04     0.00000000e+00    
           1.92877531e-04     9.38239915e-04     0.00000000e+00    
           1.93460786e-04     9.34733136e-04     0.00000000e+00    
           1.94697175e-04     9.31788760e-04     0.00000000e+00    
           1.96577457e-04     9.29140486e-04     0.00000000e+00    
           1.98961527e-04     9.27088608e-04     0.00000000e+00    
           2.01891773e-04     9.25526139e-04     0.00000000e+00    
           2.05149787e-04     9.25030385e-04     0.00000000e+00    
           2.08594472e-04     9.25465603e-04     0.00000000e+00    