<?xml version="1.0"?>
<VTKFile type="UnstructuredGrid" version="0.1">
  <UnstructuredGrid>
    <Piece NumberOfPoints="1034" NumberOfCells="1614">
      <Points>
        <DataArray type="Float32" NumberOfComponents="3">
           5.21582007e-01     5.11657000e-01     0.00000000e+00    
           5.07319987e-01     5.11657000e-01     0.00000000e+00    
           4.65243995e-01     5.17907977e-01     0.00000000e+00    
           4.65243995e-01     5.04921973e-01     0.00000000e+00    
           4.75246996e-01     5.11415005e-01     0.00000000e+00    
           5.33852994e-01     5.04921973e-01     0.00000000e+00    
           5.33852994e-01     5.17907977e-01     0.00000000e+00    
           4.83779997e-01     5.34618974e-01     0.00000000e+00    
           4.68984991e-01     5.34618974e-01     0.00000000e+00    
           4.76381987e-01     5.23841977e-01     0.00000000e+00    
           4.68984991e-01     4.66010004e-01     0.00000000e+00    
           4.83779997e-01     4.66010004e-01     0.00000000e+00    
           4.99920011e-01     5.34618974e-01     0.00000000e+00    
           4.89203990e-01     5.34618974e-01     0.00000000e+00    
           4.94562000e-01     5.22280991e-01     0.00000000e+00    
           4.89203990e-01     4.66010004e-01     0.00000000e+00    
           4.99920011e-01     4.66010004e-01     0.00000000e+00    
           5.32517016e-01     4.74112004e-01     0.00000000e+00    
           5.17961025e-01     4.74112004e-01     0.00000000e+00    
           5.33852994e-01     5.19801974e-01     0.00000000e+00    
           5.33852994e-01     5.29603004e-01     0.00000000e+00    
           5.19536972e-01     5.24702013e-01     0.00000000e+00    
           4.65243995e-01     5.29603004e-01     0.00000000e+00    
           4.65243995e-01     5.19801974e-01     0.00000000e+00    
           4.92487997e-01     5.17117977e-01     0.00000000e+00    
           4.76904988e-01     5.17117977e-01     0.00000000e+00    
           5.17996013e-01     5.27033985e-01     0.00000000e+00    
           5.04473984e-01     5.27033985e-01     0.00000000e+00    
           5.08446991e-01     4.83435005e-01     0.00000000e+00    
           4.94414002e-01     4.83435005e-01     0.00000000e+00    
           4.65243995e-01     4.83101994e-01     0.00000000e+00    
           4.65243995e-01     4.74415004e-01     0.00000000e+00    
           4.78336990e-01     4.78758007e-01     0.00000000e+00    
           5.33852994e-01     4.74415004e-01     0.00000000e+00    
           5.33852994e-01     4.83101994e-01     0.00000000e+00    
           4.80668008e-01     4.95810986e-01     0.00000000e+00    
           4.66084987e-01     4.95810986e-01     0.00000000e+00    
           4.93930012e-01     4.79214013e-01     0.00000000e+00    
           4.78967011e-01     4.79214013e-01     0.00000000e+00    
           5.09284973e-01     4.97658014e-01     0.00000000e+00    
           4.95503992e-01     4.97658014e-01     0.00000000e+00    
           5.33011973e-01     5.01751006e-01     0.00000000e+00    
           5.17829001e-01     5.01751006e-01     0.00000000e+00    
           4.95451003e-01     5.00564992e-01     0.00000000e+00    
           4.80922014e-01     5.00564992e-01     0.00000000e+00    
           5.25367022e-01     4.88312006e-01     0.00000000e+00    
           5.09521008e-01     4.88312006e-01     0.00000000e+00    
           4.65243995e-01     5.34618974e-01     0.00000000e+00    
           4.65243995e-01     4.66010004e-01     0.00000000e+00    
           5.33852994e-01     4.66010004e-01     0.00000000e+00    
           5.33852994e-01     5.34618974e-01     0.00000000e+00    
           5.21338999e-01     5.13502657e-01     0.00000000e+00    
           5.20626605e-01     5.15222490e-01     0.00000000e+00    
           5.19493401e-01     5.16699374e-01     0.00000000e+00    
           5.18016517e-01     5.17832637e-01     0.00000000e+00    
           5.16296625e-01     5.18545032e-01     0.00000000e+00    
           5.14451027e-01     5.18787980e-01     0.00000000e+00    
           5.12605369e-01     5.18545032e-01     0.00000000e+00    
           5.10885477e-01     5.17832637e-01     0.00000000e+00    
           5.09408593e-01     5.16699374e-01     0.00000000e+00    
           5.08275390e-01     5.15222490e-01     0.00000000e+00    
           5.07562995e-01     5.13502657e-01     0.00000000e+00    
           5.07562995e-01     5.09811342e-01     0.00000000e+00    
           5.08275390e-01     5.08091509e-01     0.00000000e+00    
           5.09408593e-01     5.06614625e-01     0.00000000e+00    
           5.10885477e-01     5.05481362e-01     0.00000000e+00    
           5.12605369e-01     5.04768968e-01     0.00000000e+00    
           5.14451027e-01     5.04526019e-01     0.00000000e+00    
           5.16296625e-01     5.04768968e-01     0.00000000e+00    
           5.18016517e-01     5.05481362e-01     0.00000000e+00    
           5.19493401e-01     5.06614625e-01     0.00000000e+00    
           5.20626605e-01     5.08091509e-01     0.00000000e+00    
           5.21338999e-01     5.09811342e-01     0.00000000e+00    
           4.66931671e-01     5.04409373e-01     0.00000000e+00    
           4.68693614e-01     5.04328012e-01     0.00000000e+00    
           4.70421344e-01     5.04682958e-01     0.00000000e+00    
           4.72008497e-01     5.05452335e-01     0.00000000e+00    
           4.73357379e-01     5.06588817e-01     0.00000000e+00    
           4.74384934e-01     5.08022368e-01     0.00000000e+00    
           4.75027919e-01     5.09664834e-01     0.00000000e+00    
           4.75028187e-01     5.13165236e-01     0.00000000e+00    
           4.74385172e-01     5.14807761e-01     0.00000000e+00    
           4.73357558e-01     5.16241372e-01     0.00000000e+00    
           4.72008646e-01     5.17377913e-01     0.00000000e+00    
           4.70421433e-01     5.18147290e-01     0.00000000e+00    
           4.68693614e-01     5.18502235e-01     0.00000000e+00    
           4.66931641e-01     5.18420875e-01     0.00000000e+00    
           5.32303810e-01     5.16964078e-01     0.00000000e+00    
           5.31043947e-01     5.15658796e-01     0.00000000e+00    
           5.30155540e-01     5.14077127e-01     0.00000000e+00    
           5.29696345e-01     5.12322068e-01     0.00000000e+00    
           5.29696345e-01     5.10507941e-01     0.00000000e+00    
           5.30155540e-01     5.08752882e-01     0.00000000e+00    
           5.31043947e-01     5.07171214e-01     0.00000000e+00    
           5.32303810e-01     5.05865932e-01     0.00000000e+00    
           4.68517244e-01     5.32760799e-01     0.00000000e+00    
           4.68509018e-01     5.30844629e-01     0.00000000e+00    
           4.68960851e-01     5.28982460e-01     0.00000000e+00    
           4.69846308e-01     5.27283132e-01     0.00000000e+00    
           4.71113682e-01     5.25845945e-01     0.00000000e+00    
           4.72688884e-01     5.24754822e-01     0.00000000e+00    
           4.74479854e-01     5.24073541e-01     0.00000000e+00    
           4.78284091e-01     5.24073601e-01     0.00000000e+00    
           4.80075032e-01     5.24754822e-01     0.00000000e+00    
           4.81650203e-01     5.25845885e-01     0.00000000e+00    
           4.82917547e-01     5.27283013e-01     0.00000000e+00    
           4.83803004e-01     5.28982282e-01     0.00000000e+00    
           4.84254897e-01     5.30844331e-01     0.00000000e+00    
           4.84246761e-01     5.32760441e-01     0.00000000e+00    
           4.82887864e-01     4.67691004e-01     0.00000000e+00    
           4.81620818e-01     4.69110936e-01     0.00000000e+00    
           4.80051905e-01     4.70188022e-01     0.00000000e+00    
           4.78271484e-01     4.70860153e-01     0.00000000e+00    
           4.76382166e-01     4.71088618e-01     0.00000000e+00    
           4.74492878e-01     4.70860243e-01     0.00000000e+00    
           4.72712427e-01     4.70188200e-01     0.00000000e+00    
           4.71143454e-01     4.69111174e-01     0.00000000e+00    
           4.69876349e-01     4.67691302e-01     0.00000000e+00    
           4.88103986e-01     5.33086061e-01     0.00000000e+00    
           4.87431526e-01     5.31323195e-01     0.00000000e+00    
           4.87231195e-01     5.29447019e-01     0.00000000e+00    
           4.87516224e-01     5.27581930e-01     0.00000000e+00    
           4.88267750e-01     5.25851250e-01     0.00000000e+00    
           4.89436030e-01     5.24369657e-01     0.00000000e+00    
           4.90943670e-01     5.23235261e-01     0.00000000e+00    
           4.92690891e-01     5.22523046e-01     0.00000000e+00    
           4.96432930e-01     5.22523701e-01     0.00000000e+00    
           4.98180002e-01     5.23235798e-01     0.00000000e+00    
           4.99687493e-01     5.24370134e-01     0.00000000e+00    
           5.00855684e-01     5.25851607e-01     0.00000000e+00    
           5.01607120e-01     5.27582109e-01     0.00000000e+00    
           5.01892149e-01     5.29447079e-01     0.00000000e+00    
           5.01691818e-01     5.31323016e-01     0.00000000e+00    
           5.01019418e-01     5.33085763e-01     0.00000000e+00    
           4.98371124e-01     4.67269689e-01     0.00000000e+00    
           4.96539861e-01     4.68064904e-01     0.00000000e+00    
           4.94562000e-01     4.68336672e-01     0.00000000e+00    
           4.92584139e-01     4.68064904e-01     0.00000000e+00    
           4.90752876e-01     4.67269689e-01     0.00000000e+00    
           5.32269001e-01     4.75995690e-01     0.00000000e+00    
           5.31541944e-01     4.77750987e-01     0.00000000e+00    
           5.30385315e-01     4.79258329e-01     0.00000000e+00    
           5.28877974e-01     4.80414927e-01     0.00000000e+00    
[...]
      <PointData>
        <DataArray type="Float32" Name="Displacement" NumberOfComponents="3">
           1.70606258e-03     1.53385138e-03     0.00000000e+00    
           1.68496929e-03     1.51920854e-03     0.00000000e+00    
           4.36781957e-05     1.53899810e-03     0.00000000e+00    
           5.08327757e-05     1.52109982e-03     0.00000000e+00    
           6.26710025e-05     1.53598143e-03     0.00000000e+00    
           2.35083280e-03     1.52109982e-03     0.00000000e+00    
           2.34367815e-03     1.53899810e-03     0.00000000e+00    
           3.45701381e-04     2.22141645e-03     0.00000000e+00    
           3.24153691e-04     2.23268056e-03     0.00000000e+00    
           3.27421993e-04     2.21111043e-03     0.00000000e+00    
           3.24153691e-04    -6.73195100e-05     0.00000000e+00    
           3.45701381e-04    -7.85835800e-05     0.00000000e+00    
           8.91444914e-04     2.15165340e-03     0.00000000e+00    
           8.75499914e-04     2.14514975e-03     0.00000000e+00    
           8.90362950e-04     2.13038619e-03     0.00000000e+00    
           8.75499914e-04    -1.54850175e-04     0.00000000e+00    
           8.91444914e-04    -1.48346677e-04     0.00000000e+00    
           2.05768342e-03     3.03248875e-04     0.00000000e+00    
           2.03653681e-03     3.00181593e-04     0.00000000e+00    
           2.09306017e-03     1.96338235e-03     0.00000000e+00    
           2.09363154e-03     1.97783764e-03     0.00000000e+00    
           2.07283604e-03     1.97088625e-03     0.00000000e+00    
          -2.06368466e-04     1.97783764e-03     0.00000000e+00    
          -2.06939818e-04     1.96338235e-03     0.00000000e+00    
           5.73872006e-04     1.74723263e-03     0.00000000e+00    
           5.51143254e-04     1.75151625e-03     0.00000000e+00    
           1.58543501e-03     2.02698028e-03     0.00000000e+00    
           1.56576571e-03     2.02558446e-03     0.00000000e+00    
           1.19034632e-03     6.68729190e-04     0.00000000e+00    
           1.17027306e-03     6.65159139e-04     0.00000000e+00    
           1.76015790e-04     4.34121088e-04     0.00000000e+00    
           1.79637354e-04     4.22106968e-04     0.00000000e+00    
           1.96720765e-04     4.33034264e-04     0.00000000e+00    
           2.47963727e-03     4.22106968e-04     0.00000000e+00    
           2.47601583e-03     4.34121088e-04     0.00000000e+00    
           2.43209230e-04     1.03837927e-03     0.00000000e+00    
           2.22156537e-04     1.05423294e-03     0.00000000e+00    
           6.34263852e-04     4.63348551e-04     0.00000000e+00    
           6.13058743e-04     4.59457631e-04     0.00000000e+00    
           1.23355840e-03     1.02009194e-03     0.00000000e+00    
           1.21366326e-03     1.03767565e-03     0.00000000e+00    
           2.02774047e-03     1.23944948e-03     0.00000000e+00    
           2.00547371e-03     1.24009443e-03     0.00000000e+00    
           7.07518309e-04     1.17324316e-03     0.00000000e+00    
           6.86911459e-04     1.17964228e-03     0.00000000e+00    
           1.75338145e-03     7.96645530e-04     0.00000000e+00    
           1.73014088e-03     7.92563951e-04     0.00000000e+00    
           0.00000000e+00     2.30000005e-03     0.00000000e+00    
           0.00000000e+00     0.00000000e+00     0.00000000e+00    
           2.30000005e-03     0.00000000e+00     0.00000000e+00    
           2.30000005e-03     2.30000005e-03     0.00000000e+00    
           1.70367211e-03     1.53687992e-03     0.00000000e+00    
           1.70077989e-03     1.53865607e-03     0.00000000e+00    
           1.69739709e-03     1.53980870e-03     0.00000000e+00    
           1.69390265e-03     1.54003117e-03     0.00000000e+00    
           1.69052952e-03     1.53901486e-03     0.00000000e+00    
           1.68760971e-03     1.53717096e-03     0.00000000e+00    
           1.68562622e-03     1.53483974e-03     0.00000000e+00    
           1.68410712e-03     1.53224939e-03     0.00000000e+00    
           1.68283423e-03     1.52926077e-03     0.00000000e+00    
           1.68261689e-03     1.52565120e-03     0.00000000e+00    
           1.68324541e-03     1.52231101e-03     0.00000000e+00    
           1.68717850e-03     1.51648186e-03     0.00000000e+00    
           1.69034675e-03     1.51471037e-03     0.00000000e+00    
           1.69358542e-03     1.51361746e-03     0.00000000e+00    
           1.69727043e-03     1.51335786e-03     0.00000000e+00    
           1.70092483e-03     1.51444890e-03     0.00000000e+00    
           1.70429843e-03     1.51639292e-03     0.00000000e+00    
           1.70681265e-03     1.51921296e-03     0.00000000e+00    
           1.70817343e-03     1.52260379e-03     0.00000000e+00    
           1.70831953e-03     1.52557518e-03     0.00000000e+00    
           1.70778669e-03     1.52818963e-03     0.00000000e+00    
           1.70700927e-03     1.53088022e-03     0.00000000e+00    
           5.39262364e-05     1.52067281e-03     0.00000000e+00    
           5.69049589e-05     1.52160437e-03     0.00000000e+00    
           5.90636519e-05     1.52312568e-03     0.00000000e+00    
           6.09073286e-05     1.52497320e-03     0.00000000e+00    
           6.24618988e-05     1.52739126e-03     0.00000000e+00    
           6.33582458e-05     1.53009198e-03     0.00000000e+00    
           6.33394229e-05     1.53319736e-03     0.00000000e+00    
           6.11338546e-05     1.53842010e-03     0.00000000e+00    
           5.92942124e-05     1.54030893e-03     0.00000000e+00    
           5.69458716e-05     1.54191221e-03     0.00000000e+00    
           5.43090500e-05     1.54286588e-03     0.00000000e+00    
           5.14237181e-05     1.54308393e-03     0.00000000e+00    
           4.83059339e-05     1.54269359e-03     0.00000000e+00    
           4.55290683e-05     1.54096854e-03     0.00000000e+00    
           2.34257989e-03     1.53694418e-03     0.00000000e+00    
           2.34168884e-03     1.53470528e-03     0.00000000e+00    
           2.34097196e-03     1.53165846e-03     0.00000000e+00    
           2.34120805e-03     1.52856531e-03     0.00000000e+00    
           2.34271330e-03     1.52551965e-03     0.00000000e+00    
           2.34477292e-03     1.52341265e-03     0.00000000e+00    
           2.34673219e-03     1.52238749e-03     0.00000000e+00    
           2.34868703e-03     1.52174244e-03     0.00000000e+00    
           3.21823318e-04     2.23001605e-03     0.00000000e+00    
           3.20436957e-04     2.22696667e-03     0.00000000e+00    
           3.19882965e-04     2.22389190e-03     0.00000000e+00    
           3.19882587e-04     2.22070562e-03     0.00000000e+00    
           3.20730556e-04     2.21772608e-03     0.00000000e+00    
           3.22374079e-04     2.21489090e-03     0.00000000e+00    
           3.24804278e-04     2.21255631e-03     0.00000000e+00    
           3.30287585e-04     2.21029134e-03     0.00000000e+00    
           3.32797004e-04     2.20995187e-03     0.00000000e+00    
           3.35507473e-04     2.20999587e-03     0.00000000e+00    
           3.38544021e-04     2.21062195e-03     0.00000000e+00    
           3.41456442e-04     2.21265666e-03     0.00000000e+00    
           3.43600870e-04     2.21520197e-03     0.00000000e+00    
           3.45134729e-04     2.21810187e-03     0.00000000e+00    
           3.45541863e-04    -7.53998029e-05     0.00000000e+00    
           3.44704924e-04    -7.21846081e-05     0.00000000e+00    
           3.42982792e-04    -6.95140989e-05     0.00000000e+00    
           3.40591359e-04    -6.71711023e-05     0.00000000e+00    
           3.37999954e-04    -6.58976496e-05     0.00000000e+00    
           3.35530291e-04    -6.50329821e-05     0.00000000e+00    
           3.32945579e-04    -6.44196916e-05     0.00000000e+00    
           3.30044335e-04    -6.45164037e-05     0.00000000e+00    
           3.26816895e-04    -6.55323674e-05     0.00000000e+00    
           8.74855265e-04     2.14207498e-03     0.00000000e+00    
           8.74942401e-04     2.13896250e-03     0.00000000e+00    
           8.75909231e-04     2.13603675e-03     0.00000000e+00    
           8.77501909e-04     2.13315594e-03     0.00000000e+00    
           8.80239997e-04     2.13118619e-03     0.00000000e+00    
           8.82690249e-04     2.13044905e-03     0.00000000e+00    
           8.85041023e-04     2.13011610e-03     0.00000000e+00    
           8.87413858e-04     2.12996826e-03     0.00000000e+00    
           8.93297081e-04     2.13154708e-03     0.00000000e+00    
           8.95744655e-04     2.13375501e-03     0.00000000e+00    
           8.97488149e-04     2.13658134e-03     0.00000000e+00    
           8.98356491e-04     2.13951454e-03     0.00000000e+00    
           8.98162369e-04     2.14250386e-03     0.00000000e+00    
           8.97455728e-04     2.14516441e-03     0.00000000e+00    
           8.96217301e-04     2.14781426e-03     0.00000000e+00    
           8.94040277e-04     2.14998890e-03     0.00000000e+00    
           8.88441806e-04    -1.47490413e-04     0.00000000e+00    
           8.85243237e-04    -1.47396917e-04     0.00000000e+00    
           8.82105611e-04    -1.48041028e-04     0.00000000e+00    
           8.79218918e-04    -1.49737898e-04     0.00000000e+00    
           8.77138111e-04    -1.52093315e-04     0.00000000e+00    
           2.05678470e-03     3.05435533e-04     0.00000000e+00    
           2.05571670e-03     3.07185168e-04     0.00000000e+00    
           2.05428875e-03     3.09281721e-04     0.00000000e+00    
           2.05163402e-03     3.11095675e-04     0.00000000e+00    
           2.04846589e-03     3.11978889e-04     0.00000000e+00    
           2.04547425e-03     3.11824231e-04     0.00000000e+00    
           2.04294571e-03     3.10887001e-04     0.00000000e+00    
           2.04104907e-03     3.09682975e-04     0.00000000e+00    
           2.03955895e-03     3.08257906e-04     0.00000000e+00    
           2.03776872e-03     3.06229369e-04     0.00000000e+00    
           2.03664438e-03     3.03450099e-04     0.00000000e+00    
           2.03720690e-03     2.97347113e-04     0.00000000e+00    
           2.03874591e-03     2.94511294e-04     0.00000000e+00    
           2.04092148e-03     2.92359327e-04     0.00000000e+00    
           2.04355596e-03     2.91089702e-04     0.00000000e+00    
           2.04626145e-03     2.90698255e-04     0.00000000e+00    
           2.04867218e-03     2.90854339e-04     0.00000000e+00    
           2.05107522e-03     2.91391334e-04     0.00000000e+00    
           2.05361424e-03     2.92495097e-04     0.00000000e+00    
           2.05583638e-03     2.94642785e-04     0.00000000e+00    
           2.05735117e-03     2.97371531e-04     0.00000000e+00    
           2.05809344e-03     3.00286541e-04     0.00000000e+00    
           2.09166924e-03     1.97979179e-03     0.00000000e+00    
           2.08935933e-03     1.98135478e-03     0.00000000e+00    
           2.08664848e-03     1.98245118e-03     0.00000000e+00    
           2.08359491e-03     1.98260858e-03     0.00000000e+00    
           2.08049454e-03     1.98214548e-03     0.00000000e+00    
           2.07761489e-03     1.98073592e-03     0.00000000e+00    
           2.07544863e-03     1.97843532e-03     0.00000000e+00    
           2.07390869e-03     1.97587255e-03     0.00000000e+00    
           2.07314454e-03     1.97333400e-03     0.00000000e+00    
           2.07290892e-03     1.96809345e-03     0.00000000e+00    
           2.07388611e-03     1.96538726e-03     0.00000000e+00    
           2.07558717e-03     1.96273671e-03     0.00000000e+00    
           2.07807892e-03     1.96080143e-03     0.00000000e+00    
           2.08062329e-03     1.95960817e-03     0.00000000e+00    
           2.08381820e-03     1.95902726e-03     0.00000000e+00    
           2.08677072e-03     1.95937254e-03     0.00000000e+00    
           2.08925526e-03     1.96043006e-03     0.00000000e+00    
           2.09121476e-03     1.96174742e-03     0.00000000e+00    
          -2.05383694e-04     1.96545525e-03     0.00000000e+00    
          -2.04311640e-04     1.96791720e-03     0.00000000e+00    
          -2.03988981e-04     1.97057007e-03     0.00000000e+00    
          -2.04326527e-04     1.97331631e-03     0.00000000e+00    
          -2.05137505e-04     1.97562226e-03     0.00000000e+00    
           5.73921658e-04     1.75023847e-03     0.00000000e+00    
           5.73195401e-04     1.75316283e-03     0.00000000e+00    
           5.71855693e-04     1.75522070e-03     0.00000000e+00    
           5.70662494e-04     1.75694597e-03     0.00000000e+00    
           5.68916206e-04     1.75869372e-03     0.00000000e+00    
           5.66237199e-04     1.76028814e-03     0.00000000e+00    
           5.63212496e-04     1.76054880e-03     0.00000000e+00    
           5.60720800e-04     1.76033191e-03     0.00000000e+00    
           5.58409840e-04     1.75975845e-03     0.00000000e+00    
           5.56168961e-04     1.75884855e-03     0.00000000e+00    
           5.53646532e-04     1.75700651e-03     0.00000000e+00    
           5.52029989e-04     1.75420882e-03     0.00000000e+00    
           5.50959900e-04     1.74857851e-03     0.00000000e+00    
           5.51384350e-04     1.74589257e-03     0.00000000e+00    
           5.52406476e-04     1.74310536e-03     0.00000000e+00    
           5.54214930e-04     1.74077239e-03     0.00000000e+00    
           5.56601852e-04     1.73906691e-03     0.00000000e+00    
           5.59439999e-04     1.73806294e-03     0.00000000e+00    
           5.61868714e-04     1.73775782e-03     0.00000000e+00    
           5.64249349e-04     1.73776143e-03     0.00000000e+00    
           5.66930103e-04     1.73832255e-03     0.00000000e+00    
           5.69381518e-04     1.73975644e-03     0.00000000e+00    
           5.71544748e-04     1.74184970e-03     0.00000000e+00    
           5.73096040e-04     1.74441759e-03     0.00000000e+00    
           1.58512848e-03     2.02965620e-03     0.00000000e+00    
           1.58361171e-03     2.03226856e-03     0.00000000e+00    
           1.58139120e-03     2.03435007e-03     0.00000000e+00    
           1.57885347e-03     2.03559641e-03     0.00000000e+00    
           1.57611014e-03     2.03598151e-03     0.00000000e+00    
           1.57350418e-03     2.03575729e-03     0.00000000e+00    
           1.57084106e-03     2.03493470e-03     0.00000000e+00    
           1.56853674e-03     2.03321851e-03     0.00000000e+00    
           1.56667968e-03     2.03093048e-03     0.00000000e+00    
           1.56589656e-03     2.02817167e-03     0.00000000e+00    
           1.56616559e-03     2.02279910e-03     0.00000000e+00    
           1.56759622e-03     2.02013622e-03     0.00000000e+00    
           1.56981498e-03     2.01805308e-03     0.00000000e+00    
           1.57268683e-03     2.01646076e-03     0.00000000e+00    
           1.57582946e-03     2.01629451e-03     0.00000000e+00    
           1.57832110e-03     2.01681792e-03     0.00000000e+00    
           1.58063904e-03     2.01765238e-03     0.00000000e+00    
           1.58320449e-03     2.01931573e-03     0.00000000e+00    
           1.58471079e-03     2.02199304e-03     0.00000000e+00    
           1.58537319e-03     2.02457258e-03     0.00000000e+00    
           1.18964852e-03     6.71022804e-04     0.00000000e+00    
           1.18838297e-03     6.73151517e-04     0.00000000e+00    
           1.18654943e-03     6.75371499e-04     0.00000000e+00    
           1.18369365e-03     6.76613592e-04     0.00000000e+00    
           1.18124473e-03     6.76899508e-04     0.00000000e+00    
           1.17932830e-03     6.76792755e-04     0.00000000e+00    
           1.17716391e-03     6.76387048e-04     0.00000000e+00    
           1.17459265e-03     6.75614225e-04     0.00000000e+00    
           1.17202767e-03     6.73449424e-04     0.00000000e+00    
           1.17060402e-03     6.70676876e-04     0.00000000e+00    
           1.16999738e-03     6.67815097e-04     0.00000000e+00    
           1.17097469e-03     6.63190789e-04     0.00000000e+00    
           1.17193814e-03     6.61255151e-04     0.00000000e+00    
           1.17339508e-03     6.59293903e-04     0.00000000e+00    
           1.17557251e-03     6.57775672e-04     0.00000000e+00    
           1.17824483e-03     6.56746037e-04     0.00000000e+00    
           1.18124241e-03     6.56426419e-04     0.00000000e+00    
           1.18406129e-03     6.57206692e-04     0.00000000e+00    
           1.18654978e-03     6.58590056e-04     0.00000000e+00    
           1.18869497e-03     6.60741120e-04     0.00000000e+00    
           1.19008950e-03     6.63172512e-04     0.00000000e+00    
           1.19072327e-03     6.66005712e-04     0.00000000e+00    
           1.81845986e-04     4.20534838e-04     0.00000000e+00    
           1.84623947e-04     4.19294811e-04     0.00000000e+00    
           1.87711805e-04     4.19160875e-04     0.00000000e+00    
           1.90502484e-04     4.20107594e-04     0.00000000e+00    
           1.92631225e-04     4.21333389e-04     0.00000000e+00    
           1.94379536e-04     4.22877551e-04     0.00000000e+00    
           1.96330555e-04     4.25005623e-04     0.00000000e+00    
           1.97357294e-04     4.28228464e-04     0.00000000e+00    
           1.97281988e-04     4.30972490e-04     0.00000000e+00    
           1.95914196e-04     4.35014546e-04     0.00000000e+00    
           1.94704146e-04     4.37167851e-04     0.00000000e+00    
           1.92679727e-04     4.39315103e-04     0.00000000e+00    
           1.90091901e-04     4.40889969e-04     0.00000000e+00    
           1.87004698e-04     4.41304088e-04     0.00000000e+00    
           1.84367149e-04     4.41013835e-04     0.00000000e+00    
           1.81770374e-04     4.40277770e-04     0.00000000e+00    
           1.79470895e-04     4.38743504e-04     0.00000000e+00    
           1.77462251e-04     4.36676550e-04     0.00000000e+00    
           2.47531710e-03     4.31093475e-04     0.00000000e+00    
           2.47560209e-03     4.27897088e-04     0.00000000e+00    
           2.47676973e-03     4.25489328e-04     0.00000000e+00    
           2.47811037e-03     4.23839840e-04     0.00000000e+00    
           2.44817988e-04     1.04087568e-03     0.00000000e+00    
           2.45967909e-04     1.04374660e-03     0.00000000e+00    
           2.46323936e-04     1.04734651e-03     0.00000000e+00    
           2.45325762e-04     1.05094106e-03     0.00000000e+00    
           2.43286675e-04     1.05413795e-03     0.00000000e+00    
           2.40715191e-04     1.05665636e-03     0.00000000e+00    
           2.37784552e-04     1.05821982e-03     0.00000000e+00    
           2.34610547e-04     1.05929771e-03     0.00000000e+00    
           2.30972786e-04     1.05935812e-03     0.00000000e+00    
           2.27462340e-04     1.05848198e-03     0.00000000e+00    
           2.24573392e-04     1.05658837e-03     0.00000000e+00    
           2.20292437e-04     1.05135166e-03     0.00000000e+00    
           2.19204740e-04     1.04767957e-03     0.00000000e+00    
           2.19465204e-04     1.04394660e-03     0.00000000e+00    
           2.20461647e-04     1.04069023e-03     0.00000000e+00    
           2.22199713e-04     1.03767065e-03     0.00000000e+00    
           2.24552583e-04     1.03523547e-03     0.00000000e+00    
           2.27555793e-04     1.03329367e-03     0.00000000e+00    
           2.30968668e-04     1.03245385e-03     0.00000000e+00    
           2.34643434e-04     1.03258737e-03     0.00000000e+00    