<?xml version="1.0"?>
<VTKFile type="UnstructuredGrid" version="0.1">
  <UnstructuredGrid>
    <Piece NumberOfPoints="1034" NumberOfCells="1614">
      <Points>
        <DataArray type="Float32" NumberOfComponents="3">
           5.21582007e-01     5.11657000e-01     0.00000000e+00    
           5.07319987e-01     5.11657000e-01     0.00000000e+00    
           4.65243995e-01     5.17907977e-01     0.00000000e+00    
           4.65243995e-01     5.04921973e-01     0.00000000e+00    
           4.75246996e-01     5.11415005e-01     0.00000000e+00    
           5.33852994e-01     5.04921973e-01     0.00000000e+00    
           5.33852994e-01     5.17907977e-01     0.00000000e+00    
           4.83779997e-01     5.34618974e-01     0.00000000e+00    
           4.68984991e-01     5.34618974e-01     0.00000000e+00    
           4.76381987e-01     5.23841977e-01     0.00000000e+00    
           4.68984991e-01     4.66010004e-01     0.00000000e+00    
           4.83779997e-01     4.66010004e-01     0.00000000e+00    
           4.99920011e-01     5.34618974e-01     0.00000000e+00    
           4.89203990e-01     5.34618974e-01     0.00000000e+00    
           4.94562000e-01     5.22280991e-01     0.00000000e+00    
           4.89203990e-01     4.66010004e-01     0.00000000e+00    
           4.99920011e-01     4.66010004e-01     0.00000000e+00    
           5.32517016e-01     4.74112004e-01     0.00000000e+00    
           5.17961025e-01     4.74112004e-01     0.00000000e+00    
           5.33852994e-01     5.19801974e-01     0.00000000e+00    
           5.33852994e-01     5.29603004e-01     0.00000000e+00    
           5.19536972e-01     5.24702013e-01     0.00000000e+00    
           4.65243995e-01     5.29603004e-01     0.00000000e+00    
           4.65243995e-01     5.19801974e-01     0.00000000e+00    
           4.92487997e-01     5.17117977e-01     0.00000000e+00    
           4.76904988e-01     5.17117977e-01     0.00000000e+00    
           5.17996013e-01     5.27033985e-01     0.00000000e+00    
           5.04473984e-01     5.27033985e-01     0.00000000e+00    
           5.08446991e-01     4.83435005e-01     0.00000000e+00    
           4.94414002e-01     4.83435005e-01     0.00000000e+00    
           4.65243995e-01     4.83101994e-01     0.00000000e+00    
           4.65243995e-01     4.74415004e-01     0.00000000e+00    
           4.78336990e-01     4.78758007e-01     0.00000000e+00    
           5.33852994e-01     4.74415004e-01     0.00000000e+00    
           5.33852994e-01     4.83101994e-01     0.00000000e+00    
           4.80668008e-01     4.95810986e-01     0.00000000e+00    
           4.66084987e-01     4.95810986e-01     0.00000000e+00    
           4.93930012e-01     4.79214013e-01     0.00000000e+00    
           4.78967011e-01     4.79214013e-01     0.00000000e+00    
           5.09284973e-01     4.97658014e-01     0.00000000e+00    
           4.95503992e-01     4.97658014e-01     0.00000000e+00    
           5.33011973e-01     5.01751006e-01     0.00000000e+00    
           5.17829001e-01     5.01751006e-01     0.00000000e+00    
           4.95451003e-01     5.00564992e-01     0.00000000e+00    
           4.80922014e-01     5.00564992e-01     0.00000000e+00    
           5.25367022e-01     4.88312006e-01     0.00000000e+00    
           5.09521008e-01     4.88312006e-01     0.00000000e+00    
           4.65243995e-01     5.34618974e-01     0.00000000e+00    
           4.65243995e-01     4.66010004e-01     0.00000000e+00    
           5.33852994e-01     4.66010004e-01     0.00000000e+00    
           5.33852994e-01     5.34618974e-01     0.00000000e+00    
           5.21338999e-01     5.13502657e-01     0.00000000e+00    
           5.20626605e-01     5.15222490e-01     0.00000000e+00    
           5.19493401e-01     5.16699374e-01     0.00000000e+00    
           5.18016517e-01     5.17832637e-01     0.00000000e+00    
           5.16296625e-01     5.18545032e-01     0.00000000e+00    
           5.14451027e-01     5.18787980e-01     0.00000000e+00    
           5.12605369e-01     5.18545032e-01     0.00000000e+00    
           5.10885477e-01     5.17832637e-01     0.00000000e+00    
           5.09408593e-01     5.16699374e-01     0.00000000e+00    
           5.08275390e-01     5.15222490e-01     0.00000000e+00    
           5.07562995e-01     5.13502657e-01     0.00000000e+00    
           5.07562995e-01     5.09811342e-01     0.00000000e+00    
           5.08275390e-01     5.08091509e-01     0.00000000e+00    
           5.09408593e-01     5.06614625e-01     0.00000000e+00    
           5.10885477e-01     5.05481362e-01     0.00000000e+00    
           5.12605369e-01     5.04768968e-01     0.00000000e+00    
           5.14451027e-01     5.04526019e-01     0.00000000e+00    
           5.16296625e-01     5.04768968e-01     0.00000000e+00    
           5.18016517e-01     5.05481362e-01     0.00000000e+00    
           5.19493401e-01     5.06614625e-01     0.00000000e+00    
           5.20626605e-01     5.08091509e-01     0.00000000e+00    
           5.21338999e-01     5.09811342e-01     0.00000000e+00    
           4.66931671e-01     5.04409373e-01     0.00000000e+00    
           4.68693614e-01     5.04328012e-01     0.00000000e+00    
           4.70421344e-01     5.04682958e-01     0.00000000e+00    
           4.72008497e-01     5.05452335e-01     0.00000000e+00    
           4.73357379e-01     5.06588817e-01     0.00000000e+00    
           4.74384934e-01     5.08022368e-01     0.00000000e+00    
           4.75027919e-01     5.09664834e-01     0.00000000e+00    
           4.75028187e-01     5.13165236e-01     0.00000000e+00    
           4.74385172e-01     5.14807761e-01     0.00000000e+00    
           4.73357558e-01     5.16241372e-01     0.00000000e+00    
           4.72008646e-01     5.17377913e-01     0.00000000e+00    
           4.70421433e-01     5.18147290e-01     0.00000000e+00    
           4.68693614e-01     5.18502235e-01     0.00000000e+00    
           4.66931641e-01     5.18420875e-01     0.00000000e+00    
           5.32303810e-01     5.16964078e-01     0.00000000e+00    
           5.31043947e-01     5.15658796e-01     0.00000000e+00    
           5.30155540e-01     5.14077127e-01     0.00000000e+00    
           5.29696345e-01     5.12322068e-01     0.00000000e+00    
           5.29696345e-01     5.10507941e-01     0.00000000e+00    
           5.30155540e-01     5.08752882e-01     0.00000000e+00    
           5.31043947e-01     5.07171214e-01     0.00000000e+00    
           5.32303810e-01     5.05865932e-01     0.00000000e+00    
           4.68517244e-01     5.32760799e-01     0.00000000e+00    
           4.68509018e-01     5.30844629e-01     0.00000000e+00    
           4.68960851e-01     5.28982460e-01     0.00000000e+00    
           4.69846308e-01     5.27283132e-01     0.00000000e+00    
           4.71113682e-01     5.25845945e-01     0.00000000e+00    
           4.72688884e-01     5.24754822e-01     0.00000000e+00    
           4.74479854e-01     5.24073541e-01     0.00000000e+00    
           4.78284091e-01     5.24073601e-01     0.00000000e+00    
           4.80075032e-01     5.24754822e-01     0.00000000e+00    
           4.81650203e-01     5.25845885e-01     0.00000000e+00    
           4.82917547e-01     5.27283013e-01     0.00000000e+00    
           4.83803004e-01     5.28982282e-01     0.00000000e+00    
           4.84254897e-01     5.30844331e-01     0.00000000e+00    
           4.84246761e-01     5.32760441e-01     0.00000000e+00    
           4.82887864e-01     4.67691004e-01     0.00000000e+00    
           4.81620818e-01     4.69110936e-01     0.00000000e+00    
           4.80051905e-01     4.70188022e-01     0.00000000e+00    
           4.78271484e-01     4.70860153e-01     0.00000000e+00    
           4.76382166e-01     4.71088618e-01     0.00000000e+00    
           4.74492878e-01     4.70860243e-01     0.00000000e+00    
           4.72712427e-01     4.70188200e-01     0.00000000e+00    
           4.71143454e-01     4.69111174e-01     0.00000000e+00    
           4.69876349e-01     4.67691302e-01     0.00000000e+00    
           4.88103986e-01     5.33086061e-01     0.00000000e+00    
           4.87431526e-01     5.31323195e-01     0.00000000e+00    
           4.87231195e-01     5.29447019e-01     0.00000000e+00    
           4.87516224e-01     5.27581930e-01     0.00000000e+00    
           4.88267750e-01     5.25851250e-01     0.00000000e+00    
           4.89436030e-01     5.24369657e-01     0.00000000e+00    
           4.90943670e-01     5.23235261e-01     0.00000000e+00    
           4.92690891e-01     5.22523046e-01     0.00000000e+00    
           4.96432930e-01     5.22523701e-01     0.00000000e+00    
           4.98180002e-01     5.23235798e-01     0.00000000e+00    
           4.99687493e-01     5.24370134e-01     0.00000000e+00    
           5.00855684e-01     5.25851607e-01     0.00000000e+00    
           5.01607120e-01     5.27582109e-01     0.00000000e+00    
           5.01892149e-01     5.29447079e-01     0.00000000e+00    
           5.01691818e-01     5.31323016e-01     0.00000000e+00    
           5.01019418e-01     5.33085763e-01     0.00000000e+00    
           4.98371124e-01     4.67269689e-01     0.00000000e+00    
           4.96539861e-01     4.68064904e-01     0.00000000e+00    
           4.94562000e-01     4.68336672e-01     0.00000000e+00    
           4.92584139e-01     4.68064904e-01     0.00000000e+00    
           4.90752876e-01     4.67269689e-01     0.00000000e+00    
           5.32269001e-01     4.75995690e-01     0.00000000e+00    
           5.31541944e-01     4.77750987e-01     0.00000000e+00    
           5.30385315e-01     4.79258329e-01     0.00000000e+00    
           5.28877974e-01     4.80414927e-01     0.00000000e+00    
[...]
      <PointData>
        <DataArray type="Float32" Name="Displacement" NumberOfComponents="3">
           6.89742956e-05     6.29761198e-05     0.00000000e+00    
           6.87612192e-05     7.79547408e-05     0.00000000e+00    
           7.19710733e-05     6.77414646e-05     0.00000000e+00    
           6.13656885e-05     6.30981813e-05     0.00000000e+00    
           6.68273278e-05     6.09992385e-05     0.00000000e+00    
           6.13656885e-05     6.30981813e-05     0.00000000e+00    
           7.19710733e-05     6.77414646e-05     0.00000000e+00    
           1.02051017e-04     9.16436620e-05     0.00000000e+00    
           1.01926998e-04     1.07402760e-04     0.00000000e+00    
           8.82452441e-05     9.67977685e-05     0.00000000e+00    
           1.92699918e-06     7.40276391e-06     0.00000000e+00    
           2.05101696e-06    -8.35634000e-06     0.00000000e+00    
           9.57644224e-05     8.72419623e-05     0.00000000e+00    
           9.59614044e-05     9.24448395e-05     0.00000000e+00    
           8.69716678e-05     8.65527400e-05     0.00000000e+00    
          -4.03859349e-06    -7.55516339e-06     0.00000000e+00    
          -4.23557685e-06    -1.27580406e-05     0.00000000e+00    
           1.99223050e-05     1.26886289e-05     0.00000000e+00    
           1.93893629e-05     2.86768791e-05     0.00000000e+00    
           8.31051802e-05     7.98631008e-05     0.00000000e+00    
           9.36629076e-05     8.37043408e-05     0.00000000e+00    
           8.90652664e-05     9.39979873e-05     0.00000000e+00    
           9.36629076e-05     8.37043408e-05     0.00000000e+00    
           8.31051802e-05     7.98631008e-05     0.00000000e+00    
           7.66142184e-05     7.17335133e-05     0.00000000e+00    
           7.57023590e-05     8.41949077e-05     0.00000000e+00    
           9.20062666e-05     8.78457795e-05     0.00000000e+00    
           9.25162385e-05     9.36459255e-05     0.00000000e+00    
           3.49850925e-05     3.55040320e-05     0.00000000e+00    
           3.32704803e-05     3.47622990e-05     0.00000000e+00    
           2.91551059e-05     2.38084558e-05     0.00000000e+00    
           2.19391295e-05     2.15849232e-05     0.00000000e+00    
           2.58939817e-05     1.48583513e-05     0.00000000e+00    
           2.19391295e-05     2.15849232e-05     0.00000000e+00    
           2.91551059e-05     2.38084558e-05     0.00000000e+00    
           4.95974055e-05     4.30523978e-05     0.00000000e+00    
           5.00005699e-05     4.84291049e-05     0.00000000e+00    
           2.90058470e-05     1.98463531e-05     0.00000000e+00    
           2.74334634e-05     1.92608350e-05     0.00000000e+00    
           4.88035730e-05     4.27392224e-05     0.00000000e+00    
           4.90394013e-05     4.97873480e-05     0.00000000e+00    
           5.68658143e-05     5.35903855e-05     0.00000000e+00    
           5.65267692e-05     5.99763516e-05     0.00000000e+00    
           5.06446668e-05     4.98751542e-05     0.00000000e+00    
           5.09077872e-05     5.63297581e-05     0.00000000e+00    
           4.39183350e-05     4.02004080e-05     0.00000000e+00    
           4.34241629e-05     4.87517063e-05     0.00000000e+00    
           9.99999975e-05     9.99999975e-05     0.00000000e+00    
           0.00000000e+00     0.00000000e+00     0.00000000e+00    
           0.00000000e+00     0.00000000e+00     0.00000000e+00    
           9.99999975e-05     9.99999975e-05     0.00000000e+00    
           7.14908456e-05     6.40271392e-05     0.00000000e+00    
           7.38314993e-05     6.54493779e-05     0.00000000e+00    
           7.57362795e-05     6.71084999e-05     0.00000000e+00    
           7.70702318e-05     6.88399014e-05     0.00000000e+00    
           7.78150206e-05     7.08886801e-05     0.00000000e+00    
           7.80208502e-05     7.30875327e-05     0.00000000e+00    
           7.76828019e-05     7.50598847e-05     0.00000000e+00    
           7.67396195e-05     7.65059231e-05     0.00000000e+00    
           7.52228807e-05     7.75071530e-05     0.00000000e+00    
           7.33035995e-05     7.80601986e-05     0.00000000e+00    
           7.11199391e-05     7.82479619e-05     0.00000000e+00    
           6.63704486e-05     7.71020641e-05     0.00000000e+00    
           6.41439983e-05     7.58842507e-05     0.00000000e+00    
           6.22594525e-05     7.43879282e-05     0.00000000e+00    
           6.08460614e-05     7.28005980e-05     0.00000000e+00    
           6.00292842e-05     7.10634049e-05     0.00000000e+00    
           5.97813014e-05     6.92146496e-05     0.00000000e+00    
           6.00143685e-05     6.72515380e-05     0.00000000e+00    
           6.07392503e-05     6.51897572e-05     0.00000000e+00    
           6.20205828e-05     6.32220035e-05     0.00000000e+00    
           6.38529527e-05     6.25464090e-05     0.00000000e+00    
           6.63070969e-05     6.24992535e-05     0.00000000e+00    
           6.13630546e-05     6.26521942e-05     0.00000000e+00    
           6.13854718e-05     6.18622871e-05     0.00000000e+00    
           6.16295220e-05     6.09849449e-05     0.00000000e+00    
           6.22207081e-05     6.04302368e-05     0.00000000e+00    
           6.30937357e-05     6.02594337e-05     0.00000000e+00    
           6.42080777e-05     6.02735490e-05     0.00000000e+00    
           6.54568139e-05     6.05724126e-05     0.00000000e+00    
           6.81083548e-05     6.15448444e-05     0.00000000e+00    
           6.92120884e-05     6.20753635e-05     0.00000000e+00    
           7.01962563e-05     6.27442132e-05     0.00000000e+00    
           7.10263193e-05     6.35442921e-05     0.00000000e+00    
           7.16975046e-05     6.44590473e-05     0.00000000e+00    
           7.21306205e-05     6.53889219e-05     0.00000000e+00    
           7.21943361e-05     6.64830441e-05     0.00000000e+00    
           7.11213142e-05     6.87869397e-05     0.00000000e+00    
           6.97803043e-05     6.91212845e-05     0.00000000e+00    
           6.82047248e-05     6.87923239e-05     0.00000000e+00    
           6.65234766e-05     6.81679667e-05     0.00000000e+00    
           6.48078130e-05     6.70825830e-05     0.00000000e+00    
           6.30799186e-05     6.55933618e-05     0.00000000e+00    
           6.15765821e-05     6.37536432e-05     0.00000000e+00    
           6.13043521e-05     6.31062212e-05     0.00000000e+00    
           9.93637732e-05     1.07144442e-04     0.00000000e+00    
           9.68848180e-05     1.06464737e-04     0.00000000e+00    
           9.46175933e-05     1.05487248e-04     0.00000000e+00    
           9.26242719e-05     1.04236358e-04     0.00000000e+00    
           9.09113733e-05     1.02647224e-04     0.00000000e+00    
           8.95242265e-05     1.00816149e-04     0.00000000e+00    
           8.85772097e-05     9.88444372e-05     0.00000000e+00    
           8.85238915e-05     9.46323344e-05     0.00000000e+00    
           8.93624092e-05     9.26637294e-05     0.00000000e+00    
           9.06685527e-05     9.12224205e-05     0.00000000e+00    
           9.24202177e-05     9.03038235e-05     0.00000000e+00    
           9.44351632e-05     8.99028528e-05     0.00000000e+00    
           9.67243541e-05     8.99744336e-05     0.00000000e+00    
           9.93158101e-05     9.05031411e-05     0.00000000e+00    
           4.64940285e-06    -6.74282910e-06     0.00000000e+00    
           6.81569463e-06    -4.79205892e-06     0.00000000e+00    
           8.35492938e-06    -2.76135256e-06     0.00000000e+00    
           9.18337719e-06    -7.54044038e-07     0.00000000e+00    
           9.33305273e-06     1.51425024e-06     0.00000000e+00    
           8.97233167e-06     3.71441683e-06     0.00000000e+00    
           7.95210508e-06     5.44213981e-06     0.00000000e+00    
           6.31138028e-06     6.53338157e-06     0.00000000e+00    
           4.23539086e-06     7.16325439e-06     0.00000000e+00    
           9.48930392e-05     9.25140412e-05     0.00000000e+00    
           9.36493379e-05     9.22832187e-05     0.00000000e+00    
           9.21690444e-05     9.17662401e-05     0.00000000e+00    
           9.04456319e-05     9.08441070e-05     0.00000000e+00    
           8.87044152e-05     8.95033372e-05     0.00000000e+00    
           8.73247773e-05     8.79930521e-05     0.00000000e+00    
           8.67109629e-05     8.70235235e-05     0.00000000e+00    
           8.67082636e-05     8.67389390e-05     0.00000000e+00    
           8.73227618e-05     8.61964436e-05     0.00000000e+00    
           8.78519568e-05     8.58069325e-05     0.00000000e+00    
           8.86116613e-05     8.55062026e-05     0.00000000e+00    
           8.95192279e-05     8.53138699e-05     0.00000000e+00    
           9.05604975e-05     8.52762387e-05     0.00000000e+00    
           9.17871366e-05     8.53988095e-05     0.00000000e+00    
           9.31327231e-05     8.57632549e-05     0.00000000e+00    
           9.45091524e-05     8.63609603e-05     0.00000000e+00    
          -3.21209586e-06    -1.17090267e-05     0.00000000e+00    
          -2.52910763e-06    -1.06263251e-05     0.00000000e+00    
          -2.25808481e-06    -9.63032198e-06     0.00000000e+00    
          -2.47587627e-06    -8.69495943e-06     0.00000000e+00    
          -3.10765790e-06    -7.97114171e-06     0.00000000e+00    
           2.22730578e-05     1.34805814e-05     0.00000000e+00    
           2.41513371e-05     1.43505313e-05     0.00000000e+00    
           2.58400250e-05     1.54686641e-05     0.00000000e+00    
           2.74120339e-05     1.71946413e-05     0.00000000e+00    
           2.85752012e-05     1.94383119e-05     0.00000000e+00    
           2.91045872e-05     2.20077200e-05     0.00000000e+00    
           2.91316355e-05     2.49628119e-05     0.00000000e+00    
           2.82251822e-05     2.72556372e-05     0.00000000e+00    
           2.65841863e-05     2.86400646e-05     0.00000000e+00    
           2.44181265e-05     2.91939232e-05     0.00000000e+00    
           2.19369267e-05     2.92273653e-05     0.00000000e+00    
           1.68033621e-05     2.76933151e-05     0.00000000e+00    
           1.44400610e-05     2.62034373e-05     0.00000000e+00    
           1.24505950e-05     2.43503328e-05     0.00000000e+00    
           1.09915727e-05     2.21584687e-05     0.00000000e+00    
           1.01337509e-05     1.96938272e-05     0.00000000e+00    
           9.89436830e-06     1.71847387e-05     0.00000000e+00    
           1.02877621e-05     1.50836449e-05     0.00000000e+00    
           1.12886328e-05     1.35637829e-05     0.00000000e+00    
           1.29126947e-05     1.26441282e-05     0.00000000e+00    
           1.49726775e-05     1.21765152e-05     0.00000000e+00    
           1.73929566e-05     1.21435987e-05     0.00000000e+00    
           9.49805035e-05     8.52403173e-05     0.00000000e+00    
           9.59528334e-05     8.71290395e-05     0.00000000e+00    
           9.65002619e-05     8.92827593e-05     0.00000000e+00    
           9.65917861e-05     9.13413605e-05     0.00000000e+00    
           9.62023696e-05     9.29123999e-05     0.00000000e+00    
           9.52355695e-05     9.39012461e-05     0.00000000e+00    
           9.39531674e-05     9.43013511e-05     0.00000000e+00    
           9.25354398e-05     9.44302083e-05     0.00000000e+00    
           9.09800874e-05     9.43156047e-05     0.00000000e+00    
           8.67920244e-05     9.32876792e-05     0.00000000e+00    
           8.44765236e-05     9.21901155e-05     0.00000000e+00    
           8.25252937e-05     9.07888825e-05     0.00000000e+00    
           8.10819110e-05     8.93426914e-05     0.00000000e+00    
           8.01837014e-05     8.77732018e-05     0.00000000e+00    
           7.96992317e-05     8.60698856e-05     0.00000000e+00    
           7.96946551e-05     8.41826768e-05     0.00000000e+00    
           8.01286733e-05     8.20939749e-05     0.00000000e+00    
           8.13009465e-05     8.05889067e-05     0.00000000e+00    
           8.50027136e-05     7.98189358e-05     0.00000000e+00    
           8.69558426e-05     8.01288843e-05     0.00000000e+00    
           8.88834475e-05     8.07487449e-05     0.00000000e+00    
           9.06577188e-05     8.16784595e-05     0.00000000e+00    
           9.22520485e-05     8.26420001e-05     0.00000000e+00    
           7.87686731e-05     7.26755461e-05     0.00000000e+00    
           8.09154662e-05     7.41860786e-05     0.00000000e+00    
           8.28803022e-05     7.59245231e-05     0.00000000e+00    
           8.40893990e-05     7.75018925e-05     0.00000000e+00    
           8.45940667e-05     7.85326774e-05     0.00000000e+00    
           8.46262992e-05     7.94613952e-05     0.00000000e+00    
           8.44817987e-05     8.08523109e-05     0.00000000e+00    
           8.39405402e-05     8.25017996e-05     0.00000000e+00    
           8.29082855e-05     8.38361957e-05     0.00000000e+00    
           8.14333762e-05     8.46697294e-05     0.00000000e+00    
           7.95817396e-05     8.49387070e-05     0.00000000e+00    
           7.76683664e-05     8.46575058e-05     0.00000000e+00    
           7.38502567e-05     8.34223465e-05     0.00000000e+00    
           7.23116900e-05     8.25650714e-05     0.00000000e+00    
           7.09515371e-05     8.16165339e-05     0.00000000e+00    
           6.97524811e-05     8.02597278e-05     0.00000000e+00    
           6.88415166e-05     7.85839220e-05     0.00000000e+00    
           6.82903119e-05     7.66014273e-05     0.00000000e+00    
           6.82340469e-05     7.46242295e-05     0.00000000e+00    
           6.86460044e-05     7.31466425e-05     0.00000000e+00    
           6.95794588e-05     7.22004479e-05     0.00000000e+00    
           7.09511805e-05     7.16204304e-05     0.00000000e+00    
           7.26170401e-05     7.13094923e-05     0.00000000e+00    
           7.45502621e-05     7.13128175e-05     0.00000000e+00    
           9.34078562e-05     8.83891917e-05     0.00000000e+00    
           9.48171073e-05     8.91837626e-05     0.00000000e+00    
           9.58952151e-05     9.01144740e-05     0.00000000e+00    
           9.65145082e-05     9.10390809e-05     0.00000000e+00    
           9.67260421e-05     9.19274680e-05     0.00000000e+00    
           9.65550935e-05     9.27280271e-05     0.00000000e+00    
           9.60843900e-05     9.33553747e-05     0.00000000e+00    
           9.53888302e-05     9.37464793e-05     0.00000000e+00    
           9.45086795e-05     9.39103193e-05     0.00000000e+00    
           9.35720236e-05     9.38007361e-05     0.00000000e+00    
           9.13595795e-05     9.33350020e-05     0.00000000e+00    
           9.01724561e-05     9.27705041e-05     0.00000000e+00    
           8.91368254e-05     9.19113663e-05     0.00000000e+00    
           8.83628309e-05     9.07996873e-05     0.00000000e+00    
           8.79100262e-05     8.94070181e-05     0.00000000e+00    
           8.79311265e-05     8.80120715e-05     0.00000000e+00    
           8.83547182e-05     8.71361699e-05     0.00000000e+00    
           8.90875817e-05     8.68864736e-05     0.00000000e+00    
           8.98927974e-05     8.71149095e-05     0.00000000e+00    
           9.07938302e-05     8.74625694e-05     0.00000000e+00    
           3.56773344e-05     3.59096703e-05     0.00000000e+00    
           3.60241174e-05     3.60482336e-05     0.00000000e+00    
           3.62981991e-05     3.62129686e-05     0.00000000e+00    
           3.67070315e-05     3.67857901e-05     0.00000000e+00    
           3.70736525e-05     3.78562181e-05     0.00000000e+00    
           3.69627014e-05     3.85434105e-05     0.00000000e+00    
           3.64874068e-05     3.81363425e-05     0.00000000e+00    
           3.58369980e-05     3.74741721e-05     0.00000000e+00    
           3.51722629e-05     3.67978391e-05     0.00000000e+00    
           3.45361077e-05     3.61316233e-05     0.00000000e+00    
           3.38792088e-05     3.54826298e-05     0.00000000e+00    
           3.28241294e-05     3.42993990e-05     0.00000000e+00    
           3.27051639e-05     3.41185441e-05     0.00000000e+00    
           3.27240959e-05     3.41151535e-05     0.00000000e+00    
           3.25605979e-05     3.40131555e-05     0.00000000e+00    
           3.23892018e-05     3.39134094e-05     0.00000000e+00    
           3.22817250e-05     3.38898499e-05     0.00000000e+00    
           3.23961794e-05     3.39109574e-05     0.00000000e+00    
           3.26884074e-05     3.40235347e-05     0.00000000e+00    
           3.31452429e-05     3.42931489e-05     0.00000000e+00    
           3.37014026e-05     3.46175366e-05     0.00000000e+00    
           3.43485153e-05     3.50433802e-05     0.00000000e+00    
           2.10214439e-05     2.08878919e-05     0.00000000e+00    
           2.01390176e-05     1.98617035e-05     0.00000000e+00    
           1.95804423e-05     1.85347144e-05     0.00000000e+00    
           1.93996875e-05     1.69132763e-05     0.00000000e+00    
           1.97173013e-05     1.54247446e-05     0.00000000e+00    
           2.06643035e-05     1.44040496e-05     0.00000000e+00    
           2.19548529e-05     1.40490902e-05     0.00000000e+00    
           2.33266001e-05     1.41996697e-05     0.00000000e+00    
           2.46456257e-05     1.44777341e-05     0.00000000e+00    
           2.70755882e-05     1.53354449e-05     0.00000000e+00    
           2.83228255e-05     1.60719719e-05     0.00000000e+00    
           2.95952577e-05     1.72624332e-05     0.00000000e+00    
           3.06536131e-05     1.87403166e-05     0.00000000e+00    
           3.15112557e-05     2.03369891e-05     0.00000000e+00    
           3.18524544e-05     2.16538228e-05     0.00000000e+00    
           3.17546946e-05     2.25322528e-05     0.00000000e+00    
           3.12088741e-05     2.31377071e-05     0.00000000e+00    
           3.03243924e-05     2.35769312e-05     0.00000000e+00    
           2.77588024e-05     2.37774202e-05     0.00000000e+00    
           2.61981568e-05     2.33791270e-05     0.00000000e+00    
           2.45752854e-05     2.27564960e-05     0.00000000e+00    
           2.30850219e-05     2.20776328e-05     0.00000000e+00    
           5.04127529e-05     4.37452363e-05     0.00000000e+00    
           5.11255057e-05     4.41151024e-05     0.00000000e+00    
           5.18877932e-05     4.45127371e-05     0.00000000e+00    
           5.26895565e-05     4.51634914e-05     0.00000000e+00    
           5.32566992e-05     4.59912044e-05     0.00000000e+00    
           5.35150903e-05     4.69314327e-05     0.00000000e+00    
           5.34917526e-05     4.79116425e-05     0.00000000e+00    
           5.31997466e-05     4.85398923e-05     0.00000000e+00    
           5.27089469e-05     4.87634206e-05     0.00000000e+00    
           5.20317117e-05     4.88185651e-05     0.00000000e+00    
           5.11280741e-05     4.86974641e-05     0.00000000e+00    
           4.87715624e-05     4.78962902e-05     0.00000000e+00    
           4.76027235e-05     4.70157320e-05     0.00000000e+00    
           4.65490302e-05     4.58700706e-05     0.00000000e+00    
           4.57018250e-05     4.44938123e-05     0.00000000e+00    
           4.51671040e-05     4.31229200e-05     0.00000000e+00    
           4.49738873e-05     4.21618388e-05     0.00000000e+00    
           4.52098648e-05     4.16937655e-05     0.00000000e+00    
           4.58466966e-05     4.15531686e-05     0.00000000e+00    
           4.66902820e-05     4.15828981e-05     0.00000000e+00    