<?xml version="1.0"?>
<VTKFile type="UnstructuredGrid" version="0.1">
  <UnstructuredGrid>
    <Piece NumberOfPoints="1034" NumberOfCells="1614">
      <Points>
        <DataArray type="Float32" NumberOfComponents="3">
           5.21582007e-01     5.11657000e-01     0.00000000e+00    
           5.07319987e-01     5.11657000e-01     0.00000000e+00    
           4.65243995e-01     5.17907977e-01     0.00000000e+00    
           4.65243995e-01     5.04921973e-01     0.00000000e+00    
           4.75246996e-01     5.11415005e-01     0.00000000e+00    
           5.33852994e-01     5.04921973e-01     0.00000000e+00    
           5.33852994e-01     5.17907977e-01     0.00000000e+00    
           4.83779997e-01     5.34618974e-01     0.00000000e+00    
           4.68984991e-01     5.34618974e-01     0.00000000e+00    
           4.76381987e-01     5.23841977e-01     0.00000000e+00    
           4.68984991e-01     4.66010004e-01     0.00000000e+00    
           4.83779997e-01     4.66010004e-01     0.00000000e+00    
           4.99920011e-01     5.34618974e-01     0.00000000e+00    
           4.89203990e-01     5.34618974e-01     0.00000000e+00    
           4.94562000e-01     5.22280991e-01     0.00000000e+00    
           4.89203990e-01     4.66010004e-01     0.00000000e+00    
           4.99920011e-01     4.66010004e-01     0.00000000e+00    
           5.32517016e-01     4.74112004e-01     0.00000000e+00    
           5.17961025e-01     4.74112004e-01     0.00000000e+00    
           5.33852994e-01     5.19801974e-01     0.00000000e+00    
           5.33852994e-01     5.29603004e-01     0.00000000e+00    
           5.19536972e-01     5.24702013e-01     0.00000000e+00    
           4.65243995e-01     5.29603004e-01     0.00000000e+00    
           4.65243995e-01     5.19801974e-01     0.00000000e+00    
           4.92487997e-01     5.17117977e-01     0.00000000e+00    
           4.76904988e-01     5.17117977e-01     0.00000000e+00    
           5.17996013e-01     5.27033985e-01     0.00000000e+00    
           5.04473984e-01     5.27033985e-01     0.00000000e+00    
           5.08446991e-01     4.83435005e-01     0.00000000e+00    
           4.94414002e-01     4.83435005e-01     0.00000000e+00    
           4.65243995e-01     4.83101994e-01     0.00000000e+00    
           4.65243995e-01     4.74415004e-01     0.00000000e+00    
           4.78336990e-01     4.78758007e-01     0.00000000e+00    
           5.33852994e-01     4.74415004e-01     0.00000000e+00    
           5.33852994e-01     4.83101994e-01     0.00000000e+00    
           4.80668008e-01     4.95810986e-01     0.00000000e+00    
           4.66084987e-01     4.95810986e-01     0.00000000e+00    
           4.93930012e-01     4.79214013e-01     0.00000000e+00    
           4.78967011e-01     4.79214013e-01     0.00000000e+00    
           5.09284973e-01     4.97658014e-01     0.00000000e+00    
           4.95503992e-01     4.97658014e-01     0.00000000e+00    
           5.33011973e-01     5.01751006e-01     0.00000000e+00    
           5.17829001e-01     5.01751006e-01     0.00000000e+00    
           4.95451003e-01     5.00564992e-01     0.00000000e+00    
           4.80922014e-01     5.00564992e-01     0.00000000e+00    
           5.25367022e-01     4.88312006e-01     0.00000000e+00    
           5.09521008e-01     4.88312006e-01     0.00000000e+00    
           4.65243995e-01     5.34618974e-01     0.00000000e+00    
           4.65243995e-01     4.66010004e-01     0.00000000e+00    
           5.33852994e-01     4.66010004e-01     0.00000000e+00    
           5.33852994e-01     5.34618974e-01     0.00000000e+00    
           5.21338999e-01     5.13502657e-01     0.00000000e+00    
           5.20626605e-01     5.15222490e-01     0.00000000e+00    
           5.19493401e-01     5.16699374e-01     0.00000000e+00    
           5.18016517e-01     5.17832637e-01     0.00000000e+00    
           5.16296625e-01     5.18545032e-01     0.00000000e+00    
           5.14451027e-01     5.18787980e-01     0.00000000e+00    
           5.12605369e-01     5.18545032e-01     0.00000000e+00    
           5.10885477e-01     5.17832637e-01     0.00000000e+00    
           5.09408593e-01     5.16699374e-01     0.00000000e+00    
           5.08275390e-01     5.15222490e-01     0.00000000e+00    
           5.07562995e-01     5.13502657e-01     0.00000000e+00    
           5.07562995e-01     5.09811342e-01     0.00000000e+00    
           5.08275390e-01     5.08091509e-01     0.00000000e+00    
           5.09408593e-01     5.06614625e-01     0.00000000e+00    
           5.10885477e-01     5.05481362e-01     0.00000000e+00    
           5.12605369e-01     5.04768968e-01     0.00000000e+00    
           5.14451027e-01     5.04526019e-01     0.00000000e+00    
           5.16296625e-01     5.04768968e-01     0.00000000e+00    
           5.18016517e-01     5.05481362e-01     0.00000000e+00    
           5.19493401e-01     5.06614625e-01     0.00000000e+00    
           5.20626605e-01     5.08091509e-01     0.00000000e+00    
           5.21338999e-01     5.09811342e-01     0.00000000e+00    
           4.66931671e-01     5.04409373e-01     0.00000000e+00    
           4.68693614e-01     5.04328012e-01     0.00000000e+00    
           4.70421344e-01     5.04682958e-01     0.00000000e+00    
           4.72008497e-01     5.05452335e-01     0.00000000e+00    
           4.73357379e-01     5.06588817e-01     0.00000000e+00    
           4.74384934e-01     5.08022368e-01     0.00000000e+00    
           4.75027919e-01     5.09664834e-01     0.00000000e+00    
           4.75028187e-01     5.13165236e-01     0.00000000e+00    
           4.74385172e-01     5.14807761e-01     0.00000000e+00    
           4.73357558e-01     5.16241372e-01     0.00000000e+00    
           4.72008646e-01     5.17377913e-01     0.00000000e+00    
           4.70421433e-01     5.18147290e-01     0.00000000e+00    
           4.68693614e-01     5.18502235e-01     0.00000000e+00    
           4.66931641e-01     5.18420875e-01     0.00000000e+00    
           5.32303810e-01     5.16964078e-01     0.00000000e+00    
           5.31043947e-01     5.15658796e-01     0.00000000e+00    
           5.30155540e-01     5.14077127e-01     0.00000000e+00    
           5.29696345e-01     5.12322068e-01     0.00000000e+00    
           5.29696345e-01     5.10507941e-01     0.00000000e+00    
           5.30155540e-01     5.08752882e-01     0.00000000e+00    
           5.31043947e-01     5.07171214e-01     0.00000000e+00    
           5.32303810e-01     5.05865932e-01     0.00000000e+00    
           4.68517244e-01     5.32760799e-01     0.00000000e+00    
           4.68509018e-01     5.30844629e-01     0.00000000e+00    
           4.68960851e-01     5.28982460e-01     0.00000000e+00    
           4.69846308e-01     5.27283132e-01     0.00000000e+00    
           4.71113682e-01     5.25845945e-01     0.00000000e+00    
           4.72688884e-01     5.24754822e-01     0.00000000e+00    
           4.74479854e-01     5.24073541e-01     0.00000000e+00    
           4.78284091e-01     5.24073601e-01     0.00000000e+00    
           4.80075032e-01     5.24754822e-01     0.00000000e+00    
           4.81650203e-01     5.25845885e-01     0.00000000e+00    
           4.82917547e-01     5.27283013e-01     0.00000000e+00    
           4.83803004e-01     5.28982282e-01     0.00000000e+00    
           4.84254897e-01     5.30844331e-01     0.00000000e+00    
           4.84246761e-01     5.32760441e-01     0.00000000e+00    
           4.82887864e-01     4.67691004e-01     0.00000000e+00    
           4.81620818e-01     4.69110936e-01     0.00000000e+00    
           4.80051905e-01     4.70188022e-01     0.00000000e+00    
           4.78271484e-01     4.70860153e-01     0.00000000e+00    
           4.76382166e-01     4.71088618e-01     0.00000000e+00    
           4.74492878e-01     4.70860243e-01     0.00000000e+00    
           4.72712427e-01     4.70188200e-01     0.00000000e+00    
           4.71143454e-01     4.69111174e-01     0.00000000e+00    
           4.69876349e-01     4.67691302e-01     0.00000000e+00    
           4.88103986e-01     5.33086061e-01     0.00000000e+00    
           4.87431526e-01     5.31323195e-01     0.00000000e+00    
           4.87231195e-01     5.29447019e-01     0.00000000e+00    
           4.87516224e-01     5.27581930e-01     0.00000000e+00    
           4.88267750e-01     5.25851250e-01     0.00000000e+00    
           4.89436030e-01     5.24369657e-01     0.00000000e+00    
           4.90943670e-01     5.23235261e-01     0.00000000e+00    
           4.92690891e-01     5.22523046e-01     0.00000000e+00    
           4.96432930e-01     5.22523701e-01     0.00000000e+00    
           4.98180002e-01     5.23235798e-01     0.00000000e+00    
           4.99687493e-01     5.24370134e-01     0.00000000e+00    
           5.00855684e-01     5.25851607e-01     0.00000000e+00    
           5.01607120e-01     5.27582109e-01     0.00000000e+00    
           5.01892149e-01     5.29447079e-01     0.00000000e+00    
           5.01691818e-01     5.31323016e-01     0.00000000e+00    
           5.01019418e-01     5.33085763e-01     0.00000000e+00    
           4.98371124e-01     4.67269689e-01     0.00000000e+00    
           4.96539861e-01     4.68064904e-01     0.00000000e+00    
           4.94562000e-01     4.68336672e-01     0.00000000e+00    
           4.92584139e-01     4.68064904e-01     0.00000000e+00    
           4.90752876e-01     4.67269689e-01     0.00000000e+00    
           5.32269001e-01     4.75995690e-01     0.00000000e+00    
           5.31541944e-01     4.77750987e-01     0.00000000e+00    
           5.30385315e-01     4.79258329e-01     0.00000000e+00    
           5.28877974e-01     4.80414927e-01     0.00000000e+00    
[...]
      <PointData>
        <DataArray type="Float32" Name="Displacement" NumberOfComponents="3">
           8.29229655e-04     7.85017619e-04     0.00000000e+00    
           8.24798946e-04     9.54580784e-04     0.00000000e+00    
           9.09282244e-04     8.45538569e-04     0.00000000e+00    
           7.61882984e-04     8.26516713e-04     0.00000000e+00    
           8.38695792e-04     7.37809460e-04     0.00000000e+00    
           7.61882984e-04     8.26516713e-04     0.00000000e+00    
           9.09282244e-04     8.45538569e-04     0.00000000e+00    
           1.15830789e-03     1.07439875e-03     0.00000000e+00    
           1.15684012e-03     1.19840971e-03     0.00000000e+00    
           1.05671363e-03     1.12043042e-03     0.00000000e+00    
           6.84013094e-06     4.84097400e-05     0.00000000e+00    
           8.30784302e-06    -7.56012887e-05     0.00000000e+00    
           1.12869882e-03     1.09687098e-03     0.00000000e+00    
           1.12605852e-03     1.15490914e-03     0.00000000e+00    
           1.04718830e-03     1.10781880e-03     0.00000000e+00    
          -2.39415203e-05     4.90912817e-06     0.00000000e+00    
          -2.13011281e-05    -5.31290680e-05     0.00000000e+00    
           2.60206609e-04     1.52433946e-04     0.00000000e+00    
           2.53136794e-04     2.93999270e-04     0.00000000e+00    
           1.01063203e-03     9.55471944e-04     0.00000000e+00    
           1.10164145e-03     9.73289774e-04     0.00000000e+00    
           1.05767883e-03     1.08129508e-03     0.00000000e+00    
           1.10164145e-03     9.73289774e-04     0.00000000e+00    
           1.01063203e-03     9.55471944e-04     0.00000000e+00    
           9.22665233e-04     8.53581121e-04     0.00000000e+00    
           9.16846970e-04     9.98725765e-04     0.00000000e+00    
           1.08361593e-03     1.04737782e-03     0.00000000e+00    
           1.08629756e-03     1.12139853e-03     0.00000000e+00    
           4.00609802e-04     3.91975744e-04     0.00000000e+00    
           3.92039190e-04     4.29826323e-04     0.00000000e+00    
           3.35145422e-04     2.95393547e-04     0.00000000e+00    
           2.96468846e-04     2.83025496e-04     0.00000000e+00    
           3.20792955e-04     2.49547651e-04     0.00000000e+00    
           2.96468846e-04     2.83025496e-04     0.00000000e+00    
           3.35145422e-04     2.95393547e-04     0.00000000e+00    
           6.11616124e-04     5.50820143e-04     0.00000000e+00    
           6.09607378e-04     6.21476327e-04     0.00000000e+00    
           3.43430875e-04     2.73098616e-04     0.00000000e+00    
           3.35710356e-04     3.03955749e-04     0.00000000e+00    
           6.21060608e-04     5.38776105e-04     0.00000000e+00    
           6.19599421e-04     6.22474879e-04     0.00000000e+00    
           6.90116431e-04     6.29382092e-04     0.00000000e+00    
           6.85999810e-04     7.98074296e-04     0.00000000e+00    
           6.32928393e-04     6.18581777e-04     0.00000000e+00    
           6.31917384e-04     6.73622126e-04     0.00000000e+00    
           4.92608873e-04     3.62730818e-04     0.00000000e+00    
           4.85692261e-04     5.08050492e-04     0.00000000e+00    
           1.15000003e-03     1.15000003e-03     0.00000000e+00    
           0.00000000e+00     0.00000000e+00     0.00000000e+00    
           0.00000000e+00     0.00000000e+00     0.00000000e+00    
           1.15000003e-03     1.15000003e-03     0.00000000e+00    
           8.53477104e-04     7.91479892e-04     0.00000000e+00    
           8.76254519e-04     8.02393421e-04     0.00000000e+00    
           8.95544130e-04     8.18227360e-04     0.00000000e+00    
           9.09618160e-04     8.37914937e-04     0.00000000e+00    
           9.17711586e-04     8.60064232e-04     0.00000000e+00    
           9.19661601e-04     8.82801076e-04     0.00000000e+00    
           9.15925368e-04     9.04595945e-04     0.00000000e+00    
           9.06545611e-04     9.24003136e-04     0.00000000e+00    
           8.91106552e-04     9.39659425e-04     0.00000000e+00    
           8.71003082e-04     9.49754904e-04     0.00000000e+00    
           8.48510768e-04     9.54776246e-04     0.00000000e+00    
           8.01120012e-04     9.49129753e-04     0.00000000e+00    
           7.78603368e-04     9.38977115e-04     0.00000000e+00    
           7.59369868e-04     9.23802087e-04     0.00000000e+00    
           7.44765217e-04     9.04984016e-04     0.00000000e+00    
           7.35725276e-04     8.83762317e-04     0.00000000e+00    
           7.32730085e-04     8.61999462e-04     0.00000000e+00    
           7.35652749e-04     8.40957684e-04     0.00000000e+00    
           7.44381803e-04     8.20880930e-04     0.00000000e+00    
           7.59272079e-04     8.03075614e-04     0.00000000e+00    
           7.78801506e-04     7.90555263e-04     0.00000000e+00    
           8.03221599e-04     7.84689793e-04     0.00000000e+00    
           7.57439586e-04     8.08617042e-04     0.00000000e+00    
           7.57754431e-04     7.90453923e-04     0.00000000e+00    
           7.62301206e-04     7.73399952e-04     0.00000000e+00    
           7.71294348e-04     7.58509152e-04     0.00000000e+00    
           7.84736010e-04     7.47214130e-04     0.00000000e+00    
           8.01472925e-04     7.39894167e-04     0.00000000e+00    
           8.19800014e-04     7.37327849e-04     0.00000000e+00    
           8.57444888e-04     7.41987024e-04     0.00000000e+00    
           8.75174534e-04     7.49832776e-04     0.00000000e+00    
           8.90713942e-04     7.61388743e-04     0.00000000e+00    
           9.02920205e-04     7.75800552e-04     0.00000000e+00    
           9.11293784e-04     7.92481296e-04     0.00000000e+00    
           9.15430370e-04     8.10271129e-04     0.00000000e+00    
           9.14479315e-04     8.28561606e-04     0.00000000e+00    
           8.98600731e-04     8.60877219e-04     0.00000000e+00    
           8.82523309e-04     8.72427772e-04     0.00000000e+00    
           8.63017282e-04     8.78593302e-04     0.00000000e+00    
           8.42435809e-04     8.79892497e-04     0.00000000e+00    
           8.22459697e-04     8.76261329e-04     0.00000000e+00    
           8.02663271e-04     8.69195734e-04     0.00000000e+00    
           7.85111450e-04     8.58345709e-04     0.00000000e+00    
           7.71289924e-04     8.43634887e-04     0.00000000e+00    
           1.13838888e-03     1.19834731e-03     0.00000000e+00    
           1.12063659e-03     1.19516090e-03     0.00000000e+00    
           1.10363530e-03     1.18904666e-03     0.00000000e+00    
           1.08806801e-03     1.17970107e-03     0.00000000e+00    
           1.07502844e-03     1.16752740e-03     0.00000000e+00    
           1.06505817e-03     1.15330913e-03     0.00000000e+00    
           1.05862063e-03     1.13736268e-03     0.00000000e+00    
           1.05947128e-03     1.10359129e-03     0.00000000e+00    
           1.06653757e-03     1.08875381e-03     0.00000000e+00    
           1.07719912e-03     1.07654708e-03     0.00000000e+00    
           1.09126617e-03     1.06785167e-03     0.00000000e+00    
           1.10666454e-03     1.06439192e-03     0.00000000e+00    
           1.12262275e-03     1.06533198e-03     0.00000000e+00    
           1.14002929e-03     1.06826751e-03     0.00000000e+00    
           2.55078339e-05    -6.63625906e-05     0.00000000e+00    
           3.96816431e-05    -5.39083667e-05     0.00000000e+00    
           5.01605391e-05    -3.91196627e-05     0.00000000e+00    
           5.63657450e-05    -2.28624776e-05     0.00000000e+00    
           5.79736588e-05    -6.29590886e-06     0.00000000e+00    
           5.54817198e-05     9.38595895e-06     0.00000000e+00    
           4.89122685e-05     2.37652694e-05     0.00000000e+00    
           3.87347136e-05     3.56957862e-05     0.00000000e+00    
           2.38625598e-05     4.41053671e-05     0.00000000e+00    
           1.11611001e-03     1.15759147e-03     0.00000000e+00    
           1.10570039e-03     1.15693850e-03     0.00000000e+00    
           1.09438808e-03     1.15445361e-03     0.00000000e+00    
           1.08188577e-03     1.15026708e-03     0.00000000e+00    
           1.06930442e-03     1.14489894e-03     0.00000000e+00    
           1.05918699e-03     1.13705941e-03     0.00000000e+00    
           1.05214771e-03     1.12764700e-03     0.00000000e+00    
           1.04808097e-03     1.11779466e-03     0.00000000e+00    
           1.04933698e-03     1.09859277e-03     0.00000000e+00    
           1.05463376e-03     1.09076407e-03     0.00000000e+00    
           1.06239598e-03     1.08502933e-03     0.00000000e+00    
           1.07187126e-03     1.08131196e-03     0.00000000e+00    
           1.08220428e-03     1.08024513e-03     0.00000000e+00    
           1.09379087e-03     1.08098064e-03     0.00000000e+00    
           1.10610959e-03     1.08413317e-03     0.00000000e+00    
           1.11826754e-03     1.08930026e-03     0.00000000e+00    
          -1.30528861e-05    -4.33979840e-05     0.00000000e+00    
          -8.08671393e-06    -3.25085784e-05     0.00000000e+00    
          -6.77404114e-06    -2.13441344e-05     0.00000000e+00    
          -9.10724884e-06    -1.06985826e-05     0.00000000e+00    
          -1.50504884e-05    -1.51652944e-06     0.00000000e+00    
           2.80182052e-04     1.56783091e-04     0.00000000e+00    
           2.98082276e-04     1.65604186e-04     0.00000000e+00    
           3.12938791e-04     1.78278482e-04     0.00000000e+00    
           3.24585621e-04     1.93681175e-04     0.00000000e+00    
           3.32507479e-04     2.11753359e-04     0.00000000e+00    
           3.35018121e-04     2.31282655e-04     0.00000000e+00    
           3.32817464e-04     2.50733981e-04     0.00000000e+00    
           3.24664841e-04     2.68133386e-04     0.00000000e+00    
           3.11717944e-04     2.82442663e-04     0.00000000e+00    
           2.94154743e-04     2.92002194e-04     0.00000000e+00    
           2.73757498e-04     2.95906037e-04     0.00000000e+00    
           2.32452017e-04     2.88530602e-04     0.00000000e+00    
           2.13666222e-04     2.78632884e-04     0.00000000e+00    
           1.97716101e-04     2.65071518e-04     0.00000000e+00    
           1.85878031e-04     2.48460448e-04     0.00000000e+00    
           1.78910894e-04     2.29917336e-04     0.00000000e+00    
           1.77172347e-04     2.10865022e-04     0.00000000e+00    
           1.80256102e-04     1.92561929e-04     0.00000000e+00    
           1.88175283e-04     1.76484871e-04     0.00000000e+00    
           2.01378847e-04     1.63607896e-04     0.00000000e+00    
           2.19318696e-04     1.55427741e-04     0.00000000e+00    
           2.39738292e-04     1.51806657e-04     0.00000000e+00    
           1.11353246e-03     9.86720552e-04     0.00000000e+00    
           1.12189143e-03     1.00226398e-03     0.00000000e+00    
           1.12637144e-03     1.01880438e-03     0.00000000e+00    
           1.12697424e-03     1.03549764e-03     0.00000000e+00    
           1.12330122e-03     1.05104095e-03     0.00000000e+00    
           1.11529324e-03     1.06446398e-03     0.00000000e+00    
           1.10340933e-03     1.07425370e-03     0.00000000e+00    
           1.08977663e-03     1.08004140e-03     0.00000000e+00    
           1.07492309e-03     1.08207553e-03     0.00000000e+00    
           1.03824830e-03     1.07730913e-03     0.00000000e+00    
           1.01883092e-03     1.06994726e-03     0.00000000e+00    
           1.00253196e-03     1.05867232e-03     0.00000000e+00    
           9.90082277e-04     1.04459003e-03     0.00000000e+00    
           9.82247526e-04     1.02857908e-03     0.00000000e+00    
           9.78726777e-04     1.01207092e-03     0.00000000e+00    
           9.79862059e-04     9.95316193e-04     0.00000000e+00    
           9.85335791e-04     9.79344826e-04     0.00000000e+00    
           9.95767768e-04     9.65716492e-04     0.00000000e+00    
           1.02636963e-03     9.50361718e-04     0.00000000e+00    
           1.04274577e-03     9.49406181e-04     0.00000000e+00    
           1.05888641e-03     9.51582682e-04     0.00000000e+00    
           1.07413542e-03     9.56692093e-04     0.00000000e+00    
           1.08861725e-03     9.63720377e-04     0.00000000e+00    
           9.42097628e-04     8.58696818e-04     0.00000000e+00    
           9.60534555e-04     8.67314811e-04     0.00000000e+00    
           9.77235031e-04     8.79017054e-04     0.00000000e+00    
           9.89947701e-04     8.93964374e-04     0.00000000e+00    
           9.98498173e-04     9.10777366e-04     0.00000000e+00    
           1.00240787e-03     9.28714930e-04     0.00000000e+00    
           1.00130972e-03     9.46976535e-04     0.00000000e+00    
           9.95756942e-04     9.64185630e-04     0.00000000e+00    
           9.86013678e-04     9.78966244e-04     0.00000000e+00    
           9.72304086e-04     9.90862609e-04     0.00000000e+00    
           9.54623043e-04     9.98043688e-04     0.00000000e+00    
           9.35979013e-04     9.99814481e-04     0.00000000e+00    
           8.98211496e-04     9.93626309e-04     0.00000000e+00    
           8.80761771e-04     9.85260820e-04     0.00000000e+00    
           8.65307753e-04     9.73504386e-04     0.00000000e+00    
           8.53156089e-04     9.58772027e-04     0.00000000e+00    
           8.44658643e-04     9.41905368e-04     0.00000000e+00    
           8.40291148e-04     9.23771237e-04     0.00000000e+00    
           8.40740686e-04     9.05860565e-04     0.00000000e+00    
           8.45100789e-04     8.88997864e-04     0.00000000e+00    
           8.54076236e-04     8.74328252e-04     0.00000000e+00    
           8.67342576e-04     8.62668676e-04     0.00000000e+00    
           8.84288398e-04     8.55274266e-04     0.00000000e+00    
           9.03171720e-04     8.52414814e-04     0.00000000e+00    
           1.09715736e-03     1.05093746e-03     0.00000000e+00    
           1.11054513e-03     1.05729618e-03     0.00000000e+00    
           1.12120353e-03     1.06625550e-03     0.00000000e+00    
           1.12814922e-03     1.07697176e-03     0.00000000e+00    
           1.13126205e-03     1.08840025e-03     0.00000000e+00    
           1.13042840e-03     1.09958160e-03     0.00000000e+00    
           1.12601800e-03     1.10946293e-03     0.00000000e+00    
           1.11849140e-03     1.11695344e-03     0.00000000e+00    
           1.10872230e-03     1.12148607e-03     0.00000000e+00    
           1.09808531e-03     1.12235523e-03     0.00000000e+00    
           1.07371993e-03     1.11790025e-03     0.00000000e+00    
           1.06152205e-03     1.11168879e-03     0.00000000e+00    
           1.05145690e-03     1.10263343e-03     0.00000000e+00    
           1.04458036e-03     1.09143800e-03     0.00000000e+00    
           1.04123424e-03     1.07899506e-03     0.00000000e+00    
           1.04208686e-03     1.06730871e-03     0.00000000e+00    
           1.04589970e-03     1.05729478e-03     0.00000000e+00    
           1.05286285e-03     1.04981859e-03     0.00000000e+00    
           1.06163893e-03     1.04628166e-03     0.00000000e+00    
           1.07136799e-03     1.04597071e-03     0.00000000e+00    
           4.08196036e-04     3.94929433e-04     0.00000000e+00    
           4.14516224e-04     3.98784963e-04     0.00000000e+00    
           4.19373595e-04     4.03818412e-04     0.00000000e+00    
           4.22888639e-04     4.09929227e-04     0.00000000e+00    
           4.24419006e-04     4.16008203e-04     0.00000000e+00    
           4.24379454e-04     4.21741599e-04     0.00000000e+00    
           4.22851299e-04     4.26649203e-04     0.00000000e+00    
           4.19757358e-04     4.30603337e-04     0.00000000e+00    
           4.13477595e-04     4.32966743e-04     0.00000000e+00    
           4.06221807e-04     4.33200854e-04     0.00000000e+00    
           3.98730655e-04     4.31930006e-04     0.00000000e+00    
           3.85373220e-04     4.27399646e-04     0.00000000e+00    
           3.79391888e-04     4.23598569e-04     0.00000000e+00    
           3.74695461e-04     4.19113057e-04     0.00000000e+00    
           3.71141650e-04     4.13899601e-04     0.00000000e+00    
           3.68914392e-04     4.08410997e-04     0.00000000e+00    
           3.68129171e-04     4.02736623e-04     0.00000000e+00    
           3.69470537e-04     3.97327822e-04     0.00000000e+00    
           3.72791779e-04     3.92649323e-04     0.00000000e+00    
           3.78384138e-04     3.89702414e-04     0.00000000e+00    
           3.85494001e-04     3.88558168e-04     0.00000000e+00    
           3.93208611e-04     3.89551860e-04     0.00000000e+00    
           2.91777746e-04     2.77633604e-04     0.00000000e+00    
           2.88579322e-04     2.71514320e-04     0.00000000e+00    
           2.87143543e-04     2.64971750e-04     0.00000000e+00    
           2.87565810e-04     2.58479151e-04     0.00000000e+00    
           2.89812771e-04     2.52876664e-04     0.00000000e+00    
           2.94343045e-04     2.48086493e-04     0.00000000e+00    
           3.00829357e-04     2.45163159e-04     0.00000000e+00    
           3.07902170e-04     2.45558011e-04     0.00000000e+00    
           3.14405916e-04     2.47443881e-04     0.00000000e+00    
           3.27436108e-04     2.52276077e-04     0.00000000e+00    
           3.33545147e-04     2.55937921e-04     0.00000000e+00    
           3.39409424e-04     2.61170848e-04     0.00000000e+00    
           3.44012049e-04     2.66943767e-04     0.00000000e+00    
           3.47367924e-04     2.73131911e-04     0.00000000e+00    
           3.48615373e-04     2.79231986e-04     0.00000000e+00    
           3.48199741e-04     2.84745212e-04     0.00000000e+00    
           3.45995097e-04     2.89601419e-04     0.00000000e+00    
           3.41779523e-04     2.93250720e-04     0.00000000e+00    
           3.27313406e-04     2.95088161e-04     0.00000000e+00    
           3.19400075e-04     2.92904442e-04     0.00000000e+00    
           3.11239681e-04     2.90820521e-04     0.00000000e+00    
           3.03155888e-04     2.87815696e-04     0.00000000e+00    
           6.21347339e-04     5.54793689e-04     0.00000000e+00    
           6.30688446e-04     5.60034008e-04     0.00000000e+00    
           6.38845144e-04     5.66690869e-04     0.00000000e+00    
           6.45894383e-04     5.75115322e-04     0.00000000e+00    
           6.50455593e-04     5.85099449e-04     0.00000000e+00    
           6.51894079e-04     5.95621299e-04     0.00000000e+00    
           6.50357571e-04     6.05424808e-04     0.00000000e+00    
           6.46406668e-04     6.13621844e-04     0.00000000e+00    
           6.40520477e-04     6.19404309e-04     0.00000000e+00    
           6.32531475e-04     6.22386695e-04     0.00000000e+00    
           6.22099382e-04     6.22662308e-04     0.00000000e+00    
           5.97038481e-04     6.17709593e-04     0.00000000e+00    
           5.85892878e-04     6.11253432e-04     0.00000000e+00    
           5.76878607e-04     6.02940214e-04     0.00000000e+00    
           5.70293341e-04     5.93494507e-04     0.00000000e+00    
           5.66510193e-04     5.83624409e-04     0.00000000e+00    
           5.65255235e-04     5.73713565e-04     0.00000000e+00    
           5.66618983e-04     5.64667454e-04     0.00000000e+00    
           5.71393990e-04     5.56603132e-04     0.00000000e+00    
           5.79578103e-04     5.50622412e-04     0.00000000e+00    