<?xml version="1.0"?>
<VTKFile type="UnstructuredGrid" version="0.1">
  <UnstructuredGrid>
    <Piece NumberOfPoints="1034" NumberOfCells="1614">
      <Points>
        <DataArray type="Float32" NumberOfComponents="3">
           5.21582007e-01     5.11657000e-01     0.00000000e+00    
           5.07319987e-01     5.11657000e-01     0.00000000e+00    
           4.65243995e-01     5.17907977e-01     0.00000000e+00    
           4.65243995e-01     5.04921973e-01     0.00000000e+00    
           4.75246996e-01     5.11415005e-01     0.00000000e+00    
           5.33852994e-01     5.04921973e-01     0.00000000e+00    
           5.33852994e-01     5.17907977e-01     0.00000000e+00    
           4.83779997e-01     5.34618974e-01     0.00000000e+00    
           4.68984991e-01     5.34618974e-01     0.00000000e+00    
           4.76381987e-01     5.23841977e-01     0.00000000e+00    
           4.68984991e-01     4.66010004e-01     0.00000000e+00    
           4.83779997e-01     4.66010004e-01     0.00000000e+00    
           4.99920011e-01     5.34618974e-01     0.00000000e+00    
           4.89203990e-01     5.34618974e-01     0.00000000e+00    
           4.94562000e-01     5.22280991e-01     0.00000000e+00    
           4.89203990e-01     4.66010004e-01     0.00000000e+00    
           4.99920011e-01     4.66010004e-01     0.00000000e+00    
           5.32517016e-01     4.74112004e-01     0.00000000e+00    
           5.17961025e-01     4.74112004e-01     0.00000000e+00    
           5.33852994e-01     5.19801974e-01     0.00000000e+00    
           5.33852994e-01     5.29603004e-01     0.00000000e+00    
           5.19536972e-01     5.24702013e-01     0.00000000e+00    
           4.65243995e-01     5.29603004e-01     0.00000000e+00    
           4.65243995e-01     5.19801974e-01     0.00000000e+00    
           4.92487997e-01     5.17117977e-01     0.00000000e+00    
           4.76904988e-01     5.17117977e-01     0.00000000e+00    
           5.17996013e-01     5.27033985e-01     0.00000000e+00    
           5.04473984e-01     5.27033985e-01     0.00000000e+00    
           5.08446991e-01     4.83435005e-01     0.00000000e+00    
           4.94414002e-01     4.83435005e-01     0.00000000e+00    
           4.65243995e-01     4.83101994e-01     0.00000000e+00    
           4.65243995e-01     4.74415004e-01     0.00000000e+00    
           4.78336990e-01     4.78758007e-01     0.00000000e+00    
           5.33852994e-01     4.74415004e-01     0.00000000e+00    
           5.33852994e-01     4.83101994e-01     0.00000000e+00    
           4.80668008e-01     4.95810986e-01     0.00000000e+00    
           4.66084987e-01     4.95810986e-01     0.00000000e+00    
           4.93930012e-01     4.79214013e-01     0.00000000e+00    
           4.78967011e-01     4.79214013e-01     0.00000000e+00    
           5.09284973e-01     4.97658014e-01     0.00000000e+00    
           4.95503992e-01     4.97658014e-01     0.00000000e+00    
           5.33011973e-01     5.01751006e-01     0.00000000e+00    
           5.17829001e-01     5.01751006e-01     0.00000000e+00    
           4.95451003e-01     5.00564992e-01     0.00000000e+00    
           4.80922014e-01     5.00564992e-01     0.00000000e+00    
           5.25367022e-01     4.88312006e-01     0.00000000e+00    
           5.09521008e-01     4.88312006e-01     0.00000000e+00    
           4.65243995e-01     5.34618974e-01     0.00000000e+00    
           4.65243995e-01     4.66010004e-01     0.00000000e+00    
           5.33852994e-01     4.66010004e-01     0.00000000e+00    
           5.33852994e-01     5.34618974e-01     0.00000000e+00    
           5.21338999e-01     5.13502657e-01     0.00000000e+00    
           5.20626605e-01     5.15222490e-01     0.00000000e+00    
           5.19493401e-01     5.16699374e-01     0.00000000e+00    
           5.18016517e-01     5.17832637e-01     0.00000000e+00    
           5.16296625e-01     5.18545032e-01     0.00000000e+00    
           5.14451027e-01     5.18787980e-01     0.00000000e+00    
           5.12605369e-01     5.18545032e-01     0.00000000e+00    
           5.10885477e-01     5.17832637e-01     0.00000000e+00    
           5.09408593e-01     5.16699374e-01     0.00000000e+00    
           5.08275390e-01     5.15222490e-01     0.00000000e+00    
           5.07562995e-01     5.13502657e-01     0.00000000e+00    
           5.07562995e-01     5.09811342e-01     0.00000000e+00    
           5.08275390e-01     5.08091509e-01     0.00000000e+00    
           5.09408593e-01     5.06614625e-01     0.00000000e+00    
           5.10885477e-01     5.05481362e-01     0.00000000e+00    
           5.12605369e-01     5.04768968e-01     0.00000000e+00    
           5.14451027e-01     5.04526019e-01     0.00000000e+00    
           5.16296625e-01     5.04768968e-01     0.00000000e+00    
           5.18016517e-01     5.05481362e-01     0.00000000e+00    
           5.19493401e-01     5.06614625e-01     0.00000000e+00    
           5.20626605e-01     5.08091509e-01     0.00000000e+00    
           5.21338999e-01     5.09811342e-01     0.00000000e+00    
           4.66931671e-01     5.04409373e-01     0.00000000e+00    
           4.68693614e-01     5.04328012e-01     0.00000000e+00    
           4.70421344e-01     5.04682958e-01     0.00000000e+00    
           4.72008497e-01     5.05452335e-01     0.00000000e+00    
           4.73357379e-01     5.06588817e-01     0.00000000e+00    
           4.74384934e-01     5.08022368e-01     0.00000000e+00    
           4.75027919e-01     5.09664834e-01     0.00000000e+00    
           4.75028187e-01     5.13165236e-01     0.00000000e+00    
           4.74385172e-01     5.14807761e-01     0.00000000e+00    
           4.73357558e-01     5.16241372e-01     0.00000000e+00    
           4.72008646e-01     5.17377913e-01     0.00000000e+00    
           4.70421433e-01     5.18147290e-01     0.00000000e+00    
           4.68693614e-01     5.18502235e-01     0.00000000e+00    
           4.66931641e-01     5.18420875e-01     0.00000000e+00    
           5.32303810e-01     5.16964078e-01     0.00000000e+00    
           5.31043947e-01     5.15658796e-01     0.00000000e+00    
           5.30155540e-01     5.14077127e-01     0.00000000e+00    
           5.29696345e-01     5.12322068e-01     0.00000000e+00    
           5.29696345e-01     5.10507941e-01     0.00000000e+00    
           5.30155540e-01     5.08752882e-01     0.00000000e+00    
           5.31043947e-01     5.07171214e-01     0.00000000e+00    
           5.32303810e-01     5.05865932e-01     0.00000000e+00    
           4.68517244e-01     5.32760799e-01     0.00000000e+00    
           4.68509018e-01     5.30844629e-01     0.00000000e+00    
           4.68960851e-01     5.28982460e-01     0.00000000e+00    
           4.69846308e-01     5.27283132e-01     0.00000000e+00    
           4.71113682e-01     5.25845945e-01     0.00000000e+00    
           4.72688884e-01     5.24754822e-01     0.00000000e+00    
           4.74479854e-01     5.24073541e-01     0.00000000e+00    
           4.78284091e-01     5.24073601e-01     0.00000000e+00    
           4.80075032e-01     5.24754822e-01     0.00000000e+00    
           4.81650203e-01     5.25845885e-01     0.00000000e+00    
           4.82917547e-01     5.27283013e-01     0.00000000e+00    
           4.83803004e-01     5.28982282e-01     0.00000000e+00    
           4.84254897e-01     5.30844331e-01     0.00000000e+00    
           4.84246761e-01     5.32760441e-01     0.00000000e+00    
           4.82887864e-01     4.67691004e-01     0.00000000e+00    
           4.81620818e-01     4.69110936e-01     0.00000000e+00    
           4.80051905e-01     4.70188022e-01     0.00000000e+00    
           4.78271484e-01     4.70860153e-01     0.00000000e+00    
           4.76382166e-01     4.71088618e-01     0.00000000e+00    
           4.74492878e-01     4.70860243e-01     0.00000000e+00    
           4.72712427e-01     4.70188200e-01     0.00000000e+00    
           4.71143454e-01     4.69111174e-01     0.00000000e+00    
           4.69876349e-01     4.67691302e-01     0.00000000e+00    
           4.88103986e-01     5.33086061e-01     0.00000000e+00    
           4.87431526e-01     5.31323195e-01     0.00000000e+00    
           4.87231195e-01     5.29447019e-01     0.00000000e+00    
           4.87516224e-01     5.27581930e-01     0.00000000e+00    
           4.88267750e-01     5.25851250e-01     0.00000000e+00    
           4.89436030e-01     5.24369657e-01     0.00000000e+00    
           4.90943670e-01     5.23235261e-01     0.00000000e+00    
           4.92690891e-01     5.22523046e-01     0.00000000e+00    
           4.96432930e-01     5.22523701e-01     0.00000000e+00    
           4.98180002e-01     5.23235798e-01     0.00000000e+00    
           4.99687493e-01     5.24370134e-01     0.00000000e+00    
           5.00855684e-01     5.25851607e-01     0.00000000e+00    
           5.01607120e-01     5.27582109e-01     0.00000000e+00    
           5.01892149e-01     5.29447079e-01     0.00000000e+00    
           5.01691818e-01     5.31323016e-01     0.00000000e+00    
           5.01019418e-01     5.33085763e-01     0.00000000e+00    
           4.98371124e-01     4.67269689e-01     0.00000000e+00    
           4.96539861e-01     4.68064904e-01     0.00000000e+00    
           4.94562000e-01     4.68336672e-01     0.00000000e+00    
           4.92584139e-01     4.68064904e-01     0.00000000e+00    
           4.90752876e-01     4.67269689e-01     0.00000000e+00    
           5.32269001e-01     4.75995690e-01     0.00000000e+00    
           5.31541944e-01     4.77750987e-01     0.00000000e+00    
           5.30385315e-01     4.79258329e-01     0.00000000e+00    
           5.28877974e-01     4.80414927e-01     0.00000000e+00    
[...]
      <PointData>
        <DataArray type="Float32" Name="Displacement" NumberOfComponents="3">
           4.04138846e-04     3.72839335e-04     0.00000000e+00    
           4.02017875e-04     4.56111768e-04     0.00000000e+00    
           4.33268404e-04     4.05087718e-04     0.00000000e+00    
           3.61822866e-04     3.88547400e-04     0.00000000e+00    
           3.99562530e-04     3.55807715e-04     0.00000000e+00    
           3.61822866e-04     3.88547400e-04     0.00000000e+00    
           4.33268404e-04     4.05087718e-04     0.00000000e+00    
           5.82487846e-04     5.30466787e-04     0.00000000e+00    
           5.82262641e-04     6.12124102e-04     0.00000000e+00    
           5.14439365e-04     5.59575215e-04     0.00000000e+00    
           7.26266080e-06     3.71241222e-05     0.00000000e+00    
           7.48783668e-06    -4.45332225e-05     0.00000000e+00    
           5.54405153e-04     5.15815627e-04     0.00000000e+00    
           5.54479135e-04     5.47070347e-04     0.00000000e+00    
           5.07209508e-04     5.17812790e-04     0.00000000e+00    
          -2.05208689e-05    -2.79296692e-05     0.00000000e+00    
          -2.05948454e-05    -5.91843855e-05     0.00000000e+00    
           1.12247355e-04     6.50726070e-05     0.00000000e+00    
           1.08755085e-04     1.42462290e-04     0.00000000e+00    
           4.91508574e-04     4.69173712e-04     0.00000000e+00    
           5.41547488e-04     4.83496406e-04     0.00000000e+00    
           5.18306100e-04     5.36086620e-04     0.00000000e+00    
           5.41547488e-04     4.83496406e-04     0.00000000e+00    
           4.91508574e-04     4.69173712e-04     0.00000000e+00    
           4.47297323e-04     4.14631970e-04     0.00000000e+00    
           4.43541532e-04     4.89665777e-04     0.00000000e+00    
           5.31739090e-04     5.07426739e-04     0.00000000e+00    
           5.33691433e-04     5.39167842e-04     0.00000000e+00    
           1.89477403e-04     1.92720647e-04     0.00000000e+00    
           1.83086973e-04     2.01536197e-04     0.00000000e+00    
           1.58094379e-04     1.32569490e-04     0.00000000e+00    
           1.25026083e-04     1.23252888e-04     0.00000000e+00    
           1.43887461e-04     9.16698264e-05     0.00000000e+00    
           1.25026083e-04     1.23252888e-04     0.00000000e+00    
           1.58094379e-04     1.32569490e-04     0.00000000e+00    
           2.89327727e-04     2.53263133e-04     0.00000000e+00    
           2.89753429e-04     2.87603063e-04     0.00000000e+00    
           1.57518472e-04     1.11008863e-04     0.00000000e+00    
           1.51715372e-04     1.18609751e-04     0.00000000e+00    
           2.90715572e-04     2.50753335e-04     0.00000000e+00    
           2.90553580e-04     2.93041812e-04     0.00000000e+00    
           3.32226744e-04     2.99727544e-04     0.00000000e+00    
           3.29630420e-04     3.68768495e-04     0.00000000e+00    
           2.98206840e-04     2.92045093e-04     0.00000000e+00    
           2.98347964e-04     3.25003784e-04     0.00000000e+00    
           2.40066642e-04     1.91173691e-04     0.00000000e+00    
           2.36369466e-04     2.57983978e-04     0.00000000e+00    
           5.75000013e-04     5.75000013e-04     0.00000000e+00    
           0.00000000e+00     0.00000000e+00     0.00000000e+00    
           0.00000000e+00     0.00000000e+00     0.00000000e+00    
           5.75000013e-04     5.75000013e-04     0.00000000e+00    
           4.17125964e-04     3.77215270e-04     0.00000000e+00    
           4.29324107e-04     3.83681763e-04     0.00000000e+00    
           4.39421070e-04     3.92121612e-04     0.00000000e+00    
           4.46628779e-04     4.01910074e-04     0.00000000e+00    
           4.50629392e-04     4.13180504e-04     0.00000000e+00    
           4.51559987e-04     4.24884143e-04     0.00000000e+00    
           4.49654821e-04     4.35668830e-04     0.00000000e+00    
           4.44696372e-04     4.44556528e-04     0.00000000e+00    
           4.36541392e-04     4.51266591e-04     0.00000000e+00    
           4.26149636e-04     4.55284287e-04     0.00000000e+00    
           4.14454960e-04     4.57009010e-04     0.00000000e+00    
           3.89556051e-04     4.52397391e-04     0.00000000e+00    
           3.77824996e-04     4.46600636e-04     0.00000000e+00    
           3.67795263e-04     4.38723597e-04     0.00000000e+00    
           3.60202132e-04     4.29558539e-04     0.00000000e+00    
           3.55695724e-04     4.19427000e-04     0.00000000e+00    
           3.54317221e-04     4.09060362e-04     0.00000000e+00    
           3.55709082e-04     3.98784498e-04     0.00000000e+00    
           3.59906437e-04     3.88575194e-04     0.00000000e+00    
           3.67278815e-04     3.79417645e-04     0.00000000e+00    
           3.77241871e-04     3.73719231e-04     0.00000000e+00    
           3.90196423e-04     3.71689384e-04     0.00000000e+00    
           3.60626989e-04     3.81265621e-04     0.00000000e+00    
           3.61153099e-04     3.73482151e-04     0.00000000e+00    
           3.63315805e-04     3.66020686e-04     0.00000000e+00    
           3.67647357e-04     3.60135979e-04     0.00000000e+00    
           3.73991323e-04     3.56399687e-04     0.00000000e+00    
           3.81875318e-04     3.54372256e-04     0.00000000e+00    
           3.90516390e-04     3.54497490e-04     0.00000000e+00    
           4.08283784e-04     3.58493213e-04     0.00000000e+00    
           4.16338997e-04     3.62296327e-04     0.00000000e+00    
           4.23404243e-04     3.67512112e-04     0.00000000e+00    
           4.29097883e-04     3.73841875e-04     0.00000000e+00    
           4.33272275e-04     3.81117017e-04     0.00000000e+00    
           4.35592898e-04     3.88795743e-04     0.00000000e+00    
           4.35398309e-04     3.97040771e-04     0.00000000e+00    
           4.28133644e-04     4.12051013e-04     0.00000000e+00    
           4.20153199e-04     4.16586583e-04     0.00000000e+00    
           4.10433218e-04     4.17920208e-04     0.00000000e+00    
           4.00111574e-04     4.17011790e-04     0.00000000e+00    
           3.90150992e-04     4.13500820e-04     0.00000000e+00    
           3.80312267e-04     4.08764143e-04     0.00000000e+00    
           3.71668604e-04     4.02997044e-04     0.00000000e+00    
           3.65533982e-04     3.95804673e-04     0.00000000e+00    
           5.69713884e-04     6.11637312e-04     0.00000000e+00    
           5.57533640e-04     6.09105569e-04     0.00000000e+00    
           5.46112307e-04     6.04717934e-04     0.00000000e+00    
           5.35891100e-04     5.98445244e-04     0.00000000e+00    
           5.27283584e-04     5.90389594e-04     0.00000000e+00    
           5.20481262e-04     5.80988068e-04     0.00000000e+00    
           5.15941763e-04     5.70587523e-04     0.00000000e+00    
           5.16079133e-04     5.48257900e-04     0.00000000e+00    
           5.20511298e-04     5.38157474e-04     0.00000000e+00    
           5.27255528e-04     5.30327030e-04     0.00000000e+00    
           5.36226144e-04     5.25083684e-04     0.00000000e+00    
           5.46255091e-04     5.22843387e-04     0.00000000e+00    
           5.57255407e-04     5.23250550e-04     0.00000000e+00    
           5.69581927e-04     5.25552488e-04     0.00000000e+00    
           1.97516765e-05    -3.74729752e-05     0.00000000e+00    
           3.00437368e-05    -2.85029255e-05     0.00000000e+00    
           3.75520067e-05    -1.83073098e-05     0.00000000e+00    
           4.18590207e-05    -7.55954079e-06     0.00000000e+00    
           4.27306986e-05     3.96523910e-06     0.00000000e+00    
           4.09566201e-05     1.46253933e-05     0.00000000e+00    
           3.63179061e-05     2.37815329e-05     0.00000000e+00    
           2.88381816e-05     3.07090850e-05     0.00000000e+00    
           1.86617035e-05     3.50958035e-05     0.00000000e+00    
           5.48866054e-04     5.48159820e-04     0.00000000e+00    
           5.42579044e-04     5.47406322e-04     0.00000000e+00    
           5.35282190e-04     5.45358867e-04     0.00000000e+00    
           5.27075608e-04     5.41682530e-04     0.00000000e+00    
           5.19073801e-04     5.37010317e-04     0.00000000e+00    
           5.12644125e-04     5.31839440e-04     0.00000000e+00    
           5.08703582e-04     5.26395510e-04     0.00000000e+00    
           5.06854325e-04     5.21740993e-04     0.00000000e+00    
           5.08916855e-04     5.13956998e-04     0.00000000e+00    
           5.12018509e-04     5.10522106e-04     0.00000000e+00    
           5.16391592e-04     5.07982855e-04     0.00000000e+00    
           5.21611306e-04     5.06352691e-04     0.00000000e+00    
           5.27385331e-04     5.05917240e-04     0.00000000e+00    
           5.33954590e-04     5.06440294e-04     0.00000000e+00    
           5.41005866e-04     5.08279772e-04     0.00000000e+00    
           5.48100565e-04     5.11316932e-04     0.00000000e+00    
          -1.54882837e-05    -5.35741019e-05     0.00000000e+00    
          -1.21943867e-05    -4.75019515e-05     0.00000000e+00    
          -1.10164183e-05    -4.15106988e-05     0.00000000e+00    
          -1.22245074e-05    -3.57531571e-05     0.00000000e+00    
          -1.55807065e-05    -3.10270552e-05     0.00000000e+00    
           1.23547507e-04     6.80282974e-05     0.00000000e+00    
           1.33305672e-04     7.28314117e-05     0.00000000e+00    
           1.41340381e-04     7.91422499e-05     0.00000000e+00    
           1.48230829e-04     8.74974940e-05     0.00000000e+00    
           1.53136614e-04     9.77423770e-05     0.00000000e+00    
           1.54951937e-04     1.09070592e-04     0.00000000e+00    
           1.54268244e-04     1.21082921e-04     0.00000000e+00    
           1.49808111e-04     1.31123394e-04     0.00000000e+00    
           1.42402190e-04     1.38746866e-04     0.00000000e+00    
           1.32312111e-04     1.43041005e-04     0.00000000e+00    
           1.20639059e-04     1.44316029e-04     0.00000000e+00    
           9.67427986e-05     1.38582298e-04     0.00000000e+00    
           8.58028216e-05     1.32220943e-04     0.00000000e+00    
           7.65519435e-05     1.23941965e-04     0.00000000e+00    
           6.97536379e-05     1.13983973e-04     0.00000000e+00    
           6.58242134e-05     1.02920276e-04     0.00000000e+00    
           6.48232453e-05     9.17715297e-05     0.00000000e+00    
           6.65847110e-05     8.17393156e-05     0.00000000e+00    
           7.11471948e-05     7.35683352e-05     0.00000000e+00    
           7.87680547e-05     6.77956923e-05     0.00000000e+00    
           8.87531060e-05     6.45525870e-05     0.00000000e+00    
           1.00346442e-04     6.35836113e-05     0.00000000e+00    
           5.47843927e-04     4.90834296e-04     0.00000000e+00    
           5.52332087e-04     4.99519752e-04     0.00000000e+00    
           5.54721744e-04     5.09038975e-04     0.00000000e+00    
           5.55030478e-04     5.18214074e-04     0.00000000e+00    
           5.53090533e-04     5.26044983e-04     0.00000000e+00    
           5.48551965e-04     5.32006961e-04     0.00000000e+00    
           5.42199065e-04     5.35448722e-04     0.00000000e+00    
           5.35124389e-04     5.37105778e-04     0.00000000e+00    
           5.27478929e-04     5.37148851e-04     0.00000000e+00    
           5.07623772e-04     5.33362036e-04     0.00000000e+00    
           4.96690220e-04     5.28861478e-04     0.00000000e+00    
           4.87465120e-04     5.22538903e-04     0.00000000e+00    
           4.80548042e-04     5.15241816e-04     0.00000000e+00    
           4.76316287e-04     5.07142104e-04     0.00000000e+00    
           4.74325177e-04     4.98715439e-04     0.00000000e+00    
           4.74777393e-04     4.89874510e-04     0.00000000e+00    
           4.77431691e-04     4.80924267e-04     0.00000000e+00    
           4.83112759e-04     4.73831315e-04     0.00000000e+00    
           5.00383670e-04     4.67603444e-04     0.00000000e+00    
           5.09534555e-04     4.68171056e-04     0.00000000e+00    
           5.18542016e-04     4.70342493e-04     0.00000000e+00    
           5.26902149e-04     4.74014319e-04     0.00000000e+00    
           5.34646446e-04     4.78292641e-04     0.00000000e+00    
           4.58475784e-04     4.18532378e-04     0.00000000e+00    
           4.69089107e-04     4.24729777e-04     0.00000000e+00    
           4.78901929e-04     4.31670749e-04     0.00000000e+00    
           4.85911412e-04     4.39986150e-04     0.00000000e+00    
           4.90307168e-04     4.48554347e-04     0.00000000e+00    
           4.91695537e-04     4.56846610e-04     0.00000000e+00    
           4.90781153e-04     4.66047088e-04     0.00000000e+00    
           4.87536658e-04     4.75496723e-04     0.00000000e+00    
           4.81948344e-04     4.83245298e-04     0.00000000e+00    
           4.74143890e-04     4.88809950e-04     0.00000000e+00    
           4.64278564e-04     4.91511659e-04     0.00000000e+00    
           4.54069261e-04     4.91206301e-04     0.00000000e+00    
           4.33404901e-04     4.86148550e-04     0.00000000e+00    
           4.24284401e-04     4.81364550e-04     0.00000000e+00    
           4.16197116e-04     4.75320063e-04     0.00000000e+00    
           4.09573957e-04     4.67422738e-04     0.00000000e+00    
           4.04761726e-04     4.58105496e-04     0.00000000e+00    
           4.02140024e-04     4.47755796e-04     0.00000000e+00    
           4.02163481e-04     4.37756302e-04     0.00000000e+00    
           4.04282240e-04     4.29016975e-04     0.00000000e+00    
           4.09213419e-04     4.22016339e-04     0.00000000e+00    
           4.16604482e-04     4.16986790e-04     0.00000000e+00    
           4.25845501e-04     4.13991191e-04     0.00000000e+00    
           4.36309201e-04     4.13181901e-04     0.00000000e+00    
           5.38515567e-04     5.09613717e-04     0.00000000e+00    
           5.45394432e-04     5.13063686e-04     0.00000000e+00    
           5.50774974e-04     5.17552020e-04     0.00000000e+00    
           5.54058468e-04     5.22496121e-04     0.00000000e+00    
           5.55312668e-04     5.27514669e-04     0.00000000e+00    
           5.54604048e-04     5.32233273e-04     0.00000000e+00    
           5.52292040e-04     5.36130683e-04     0.00000000e+00    
           5.48711163e-04     5.38818596e-04     0.00000000e+00    
           5.44129929e-04     5.40181820e-04     0.00000000e+00    
           5.39222034e-04     5.39906032e-04     0.00000000e+00    
           5.27692144e-04     5.37476037e-04     0.00000000e+00    
           5.21687325e-04     5.34521008e-04     0.00000000e+00    
           5.16595435e-04     5.30129881e-04     0.00000000e+00    
           5.12970902e-04     5.24572737e-04     0.00000000e+00    
           5.11067745e-04     5.18010289e-04     0.00000000e+00    
           5.11427876e-04     5.11715363e-04     0.00000000e+00    
           5.13476552e-04     5.07175166e-04     0.00000000e+00    
           5.17112960e-04     5.04870142e-04     0.00000000e+00    
           5.21265960e-04     5.04849711e-04     0.00000000e+00    
           5.25777868e-04     5.05986391e-04     0.00000000e+00    
           1.93318614e-04     1.94597858e-04     0.00000000e+00    
           1.96010224e-04     1.96229579e-04     0.00000000e+00    
           1.98043737e-04     1.98420632e-04     0.00000000e+00    
           1.99871210e-04     2.01918505e-04     0.00000000e+00    
           2.00598151e-04     2.05463744e-04     0.00000000e+00    
           2.00139897e-04     2.07755525e-04     0.00000000e+00    
           1.99138231e-04     2.08714191e-04     0.00000000e+00    
           1.97042929e-04     2.08702550e-04     0.00000000e+00    
           1.93497268e-04     2.07614401e-04     0.00000000e+00    
           1.89909086e-04     2.05850636e-04     0.00000000e+00    
           1.86273581e-04     2.03789532e-04     0.00000000e+00    
           1.80174320e-04     1.99943766e-04     0.00000000e+00    
           1.77969501e-04     1.98234382e-04     0.00000000e+00    
           1.76712972e-04     1.96782363e-04     0.00000000e+00    
           1.75436580e-04     1.95091081e-04     0.00000000e+00    
           1.74441971e-04     1.93352345e-04     0.00000000e+00    
           1.73929191e-04     1.91745727e-04     0.00000000e+00    
           1.74565605e-04     1.90273451e-04     0.00000000e+00    
           1.76181828e-04     1.89224738e-04     0.00000000e+00    
           1.78849339e-04     1.89044964e-04     0.00000000e+00    
           1.82185599e-04     1.89546627e-04     0.00000000e+00    
           1.85886165e-04     1.90900435e-04     0.00000000e+00    
           1.20932244e-04     1.19382988e-04     0.00000000e+00    
           1.17382013e-04     1.14317430e-04     0.00000000e+00    
           1.15326700e-04     1.08153014e-04     0.00000000e+00    
           1.15114715e-04     1.01291720e-04     0.00000000e+00    
           1.16799092e-04     9.54242787e-05     0.00000000e+00    
           1.20766228e-04     9.08074435e-05     0.00000000e+00    
           1.26439641e-04     8.84739566e-05     0.00000000e+00    
           1.32516681e-04     8.87761198e-05     0.00000000e+00    
           1.38315532e-04     8.99916413e-05     0.00000000e+00    
           1.49373256e-04     9.38243393e-05     0.00000000e+00    
           1.54875015e-04     9.69692119e-05     0.00000000e+00    
           1.60349897e-04     1.01866484e-04     0.00000000e+00    
           1.64806537e-04     1.07716020e-04     0.00000000e+00    
           1.68319471e-04     1.13886847e-04     0.00000000e+00    
           1.69798135e-04     1.19510980e-04     0.00000000e+00    
           1.69583334e-04     1.24245766e-04     0.00000000e+00    
           1.67489794e-04     1.28110012e-04     0.00000000e+00    
           1.63579476e-04     1.30962100e-04     0.00000000e+00    
           1.51588349e-04     1.32615198e-04     0.00000000e+00    
           1.44628648e-04     1.31089124e-04     0.00000000e+00    
           1.37493233e-04     1.29088890e-04     0.00000000e+00    
           1.30621716e-04     1.26547951e-04     0.00000000e+00    
           2.94243975e-04     2.56117200e-04     0.00000000e+00    
           2.98927218e-04     2.58759450e-04     0.00000000e+00    
           3.03240115e-04     2.61849287e-04     0.00000000e+00    
           3.07351700e-04     2.66052055e-04     0.00000000e+00    
           3.10132484e-04     2.71195691e-04     0.00000000e+00    
           3.11166717e-04     2.76813109e-04     0.00000000e+00    
           3.10597796e-04     2.82281631e-04     0.00000000e+00    
           3.08683200e-04     2.86308874e-04     0.00000000e+00    
           3.05759837e-04     2.88433599e-04     0.00000000e+00    
           3.01741675e-04     2.89201358e-04     0.00000000e+00    
           2.96354701e-04     2.88755138e-04     0.00000000e+00    
           2.82896392e-04     2.85073213e-04     0.00000000e+00    
           2.76662904e-04     2.80922686e-04     0.00000000e+00    
           2.71387486e-04     2.75561470e-04     0.00000000e+00    
           2.67350872e-04     2.69430049e-04     0.00000000e+00    
           2.64920673e-04     2.63449707e-04     0.00000000e+00    
           2.63957219e-04     2.58234271e-04     0.00000000e+00    
           2.64683447e-04     2.54167098e-04     0.00000000e+00    
           2.67710275e-04     2.51154968e-04     0.00000000e+00    
           2.72358011e-04     2.49397737e-04     0.00000000e+00    