<?xml version="1.0"?>
<VTKFile type="UnstructuredGrid" version="0.1">
  <UnstructuredGrid>
    <Piece NumberOfPoints="1034" NumberOfCells="1614">
      <Points>
        <DataArray type="Float32" NumberOfComponents="3">
           5.21582007e-01     5.11657000e-01     0.00000000e+00    
           5.07319987e-01     5.11657000e-01     0.00000000e+00    
           4.65243995e-01     5.17907977e-01     0.00000000e+00    
           4.65243995e-01     5.04921973e-01     0.00000000e+00    
           4.75246996e-01     5.11415005e-01     0.00000000e+00    
           5.33852994e-01     5.04921973e-01     0.00000000e+00    
           5.33852994e-01     5.17907977e-01     0.00000000e+00    
           4.83779997e-01     5.34618974e-01     0.00000000e+00    
           4.68984991e-01     5.34618974e-01     0.00000000e+00    
           4.76381987e-01     5.23841977e-01     0.00000000e+00    
           4.68984991e-01     4.66010004e-01     0.00000000e+00    
           4.83779997e-01     4.66010004e-01     0.00000000e+00    
           4.99920011e-01     5.34618974e-01     0.00000000e+00    
           4.89203990e-01     5.34618974e-01     0.00000000e+00    
           4.94562000e-01     5.22280991e-01     0.00000000e+00    
           4.89203990e-01     4.66010004e-01     0.00000000e+00    
           4.99920011e-01     4.66010004e-01     0.00000000e+00    
           5.32517016e-01     4.74112004e-01     0.00000000e+00    
           5.17961025e-01     4.74112004e-01     0.00000000e+00    
           5.33852994e-01     5.19801974e-01     0.00000000e+00    
           5.33852994e-01     5.29603004e-01     0.00000000e+00    
           5.19536972e-01     5.24702013e-01     0.00000000e+00    
           4.65243995e-01     5.29603004e-01     0.00000000e+00    
           4.65243995e-01     5.19801974e-01     0.00000000e+00    
           4.92487997e-01     5.17117977e-01     0.00000000e+00    
           4.76904988e-01     5.17117977e-01     0.00000000e+00    
           5.17996013e-01     5.27033985e-01     0.00000000e+00    
           5.04473984e-01     5.27033985e-01     0.00000000e+00    
           5.08446991e-01     4.83435005e-01     0.00000000e+00    
           4.94414002e-01     4.83435005e-01     0.00000000e+00    
           4.65243995e-01     4.83101994e-01     0.00000000e+00    
           4.65243995e-01     4.74415004e-01     0.00000000e+00    
           4.78336990e-01     4.78758007e-01     0.00000000e+00    
           5.33852994e-01     4.74415004e-01     0.00000000e+00    
           5.33852994e-01     4.83101994e-01     0.00000000e+00    
           4.80668008e-01     4.95810986e-01     0.00000000e+00    
           4.66084987e-01     4.95810986e-01     0.00000000e+00    
           4.93930012e-01     4.79214013e-01     0.00000000e+00    
           4.78967011e-01     4.79214013e-01     0.00000000e+00    
           5.09284973e-01     4.97658014e-01     0.00000000e+00    
           4.95503992e-01     4.97658014e-01     0.00000000e+00    
           5.33011973e-01     5.01751006e-01     0.00000000e+00    
           5.17829001e-01     5.01751006e-01     0.00000000e+00    
           4.95451003e-01     5.00564992e-01     0.00000000e+00    
           4.80922014e-01     5.00564992e-01     0.00000000e+00    
           5.25367022e-01     4.88312006e-01     0.00000000e+00    
           5.09521008e-01     4.88312006e-01     0.00000000e+00    
           4.65243995e-01     5.34618974e-01     0.00000000e+00    
           4.65243995e-01     4.66010004e-01     0.00000000e+00    
           5.33852994e-01     4.66010004e-01     0.00000000e+00    
           5.33852994e-01     5.34618974e-01     0.00000000e+00    
           5.21338999e-01     5.13502657e-01     0.00000000e+00    
           5.20626605e-01     5.15222490e-01     0.00000000e+00    
           5.19493401e-01     5.16699374e-01     0.00000000e+00    
           5.18016517e-01     5.17832637e-01     0.00000000e+00    
           5.16296625e-01     5.18545032e-01     0.00000000e+00    
           5.14451027e-01     5.18787980e-01     0.00000000e+00    
           5.12605369e-01     5.18545032e-01     0.00000000e+00    
           5.10885477e-01     5.17832637e-01     0.00000000e+00    
           5.09408593e-01     5.16699374e-01     0.00000000e+00    
           5.08275390e-01     5.15222490e-01     0.00000000e+00    
           5.07562995e-01     5.13502657e-01     0.00000000e+00    
           5.07562995e-01     5.09811342e-01     0.00000000e+00    
           5.08275390e-01     5.08091509e-01     0.00000000e+00    
           5.09408593e-01     5.06614625e-01     0.00000000e+00    
           5.10885477e-01     5.05481362e-01     0.00000000e+00    
           5.12605369e-01     5.04768968e-01     0.00000000e+00    
           5.14451027e-01     5.04526019e-01     0.00000000e+00    
           5.16296625e-01     5.04768968e-01     0.00000000e+00    
           5.18016517e-01     5.05481362e-01     0.00000000e+00    
           5.19493401e-01     5.06614625e-01     0.00000000e+00    
           5.20626605e-01     5.08091509e-01     0.00000000e+00    
           5.21338999e-01     5.09811342e-01     0.00000000e+00    
           4.66931671e-01     5.04409373e-01     0.00000000e+00    
           4.68693614e-01     5.04328012e-01     0.00000000e+00    
           4.70421344e-01     5.04682958e-01     0.00000000e+00    
           4.72008497e-01     5.05452335e-01     0.00000000e+00    
           4.73357379e-01     5.06588817e-01     0.00000000e+00    
           4.74384934e-01     5.08022368e-01     0.00000000e+00    
           4.75027919e-01     5.09664834e-01     0.00000000e+00    
           4.75028187e-01     5.13165236e-01     0.00000000e+00    
           4.74385172e-01     5.14807761e-01     0.00000000e+00    
           4.73357558e-01     5.16241372e-01     0.00000000e+00    
           4.72008646e-01     5.17377913e-01     0.00000000e+00    
           4.70421433e-01     5.18147290e-01     0.00000000e+00    
           4.68693614e-01     5.18502235e-01     0.00000000e+00    
           4.66931641e-01     5.18420875e-01     0.00000000e+00    
           5.32303810e-01     5.16964078e-01     0.00000000e+00    
           5.31043947e-01     5.15658796e-01     0.00000000e+00    
           5.30155540e-01     5.14077127e-01     0.00000000e+00    
           5.29696345e-01     5.12322068e-01     0.00000000e+00    
           5.29696345e-01     5.10507941e-01     0.00000000e+00    
           5.30155540e-01     5.08752882e-01     0.00000000e+00    
           5.31043947e-01     5.07171214e-01     0.00000000e+00    
           5.32303810e-01     5.05865932e-01     0.00000000e+00    
           4.68517244e-01     5.32760799e-01     0.00000000e+00    
           4.68509018e-01     5.30844629e-01     0.00000000e+00    
           4.68960851e-01     5.28982460e-01     0.00000000e+00    
           4.69846308e-01     5.27283132e-01     0.00000000e+00    
           4.71113682e-01     5.25845945e-01     0.00000000e+00    
           4.72688884e-01     5.24754822e-01     0.00000000e+00    
           4.74479854e-01     5.24073541e-01     0.00000000e+00    
           4.78284091e-01     5.24073601e-01     0.00000000e+00    
           4.80075032e-01     5.24754822e-01     0.00000000e+00    
           4.81650203e-01     5.25845885e-01     0.00000000e+00    
           4.82917547e-01     5.27283013e-01     0.00000000e+00    
           4.83803004e-01     5.28982282e-01     0.00000000e+00    
           4.84254897e-01     5.30844331e-01     0.00000000e+00    
           4.84246761e-01     5.32760441e-01     0.00000000e+00    
           4.82887864e-01     4.67691004e-01     0.00000000e+00    
           4.81620818e-01     4.69110936e-01     0.00000000e+00    
           4.80051905e-01     4.70188022e-01     0.00000000e+00    
           4.78271484e-01     4.70860153e-01     0.00000000e+00    
           4.76382166e-01     4.71088618e-01     0.00000000e+00    
           4.74492878e-01     4.70860243e-01     0.00000000e+00    
           4.72712427e-01     4.70188200e-01     0.00000000e+00    
           4.71143454e-01     4.69111174e-01     0.00000000e+00    
           4.69876349e-01     4.67691302e-01     0.00000000e+00    
           4.88103986e-01     5.33086061e-01     0.00000000e+00    
           4.87431526e-01     5.31323195e-01     0.00000000e+00    
           4.87231195e-01     5.29447019e-01     0.00000000e+00    
           4.87516224e-01     5.27581930e-01     0.00000000e+00    
           4.88267750e-01     5.25851250e-01     0.00000000e+00    
           4.89436030e-01     5.24369657e-01     0.00000000e+00    
           4.90943670e-01     5.23235261e-01     0.00000000e+00    
           4.92690891e-01     5.22523046e-01     0.00000000e+00    
           4.96432930e-01     5.22523701e-01     0.00000000e+00    
           4.98180002e-01     5.23235798e-01     0.00000000e+00    
           4.99687493e-01     5.24370134e-01     0.00000000e+00    
           5.00855684e-01     5.25851607e-01     0.00000000e+00    
           5.01607120e-01     5.27582109e-01     0.00000000e+00    
           5.01892149e-01     5.29447079e-01     0.00000000e+00    
           5.01691818e-01     5.31323016e-01     0.00000000e+00    
           5.01019418e-01     5.33085763e-01     0.00000000e+00    
           4.98371124e-01     4.67269689e-01     0.00000000e+00    
           4.96539861e-01     4.68064904e-01     0.00000000e+00    
           4.94562000e-01     4.68336672e-01     0.00000000e+00    
           4.92584139e-01     4.68064904e-01     0.00000000e+00    
           4.90752876e-01     4.67269689e-01     0.00000000e+00    
           5.32269001e-01     4.75995690e-01     0.00000000e+00    
           5.31541944e-01     4.77750987e-01     0.00000000e+00    
           5.30385315e-01     4.79258329e-01     0.00000000e+00    
           5.28877974e-01     4.80414927e-01     0.00000000e+00    
[...]
      <PointData>
        <DataArray type="Float32" Name="Displacement" NumberOfComponents="3">
           9.09356342e-04     5.89160190e-05     0.00000000e+00    
           9.09045164e-04     1.77683032e-04     0.00000000e+00    
           1.00470346e-03     1.68357237e-05     0.00000000e+00    
           8.50157579e-04     2.27723940e-05     0.00000000e+00    
           9.29082045e-04    -6.53778334e-05     0.00000000e+00    
           8.50157579e-04     2.27723940e-05     0.00000000e+00    
           1.00470346e-03     1.68357237e-05     0.00000000e+00    
           1.30767107e-03    -7.29962194e-05     0.00000000e+00    
           1.31152151e-03     9.87919120e-05     0.00000000e+00    
           1.16049557e-03     1.62759588e-05     0.00000000e+00    
          -3.84785344e-05     9.87919120e-05     0.00000000e+00    
          -4.23288948e-05    -7.29962194e-05     0.00000000e+00    
           1.24706980e-03    -6.68118810e-05     0.00000000e+00    
           1.25198485e-03    -2.51332112e-05     0.00000000e+00    
           1.17215165e-03    -5.03772426e-05     0.00000000e+00    
          -9.80151381e-05    -2.51332112e-05     0.00000000e+00    
          -1.02930215e-04    -6.68118810e-05     0.00000000e+00    
           2.36845241e-04    -4.43288845e-05     0.00000000e+00    
           2.33878702e-04     1.64069541e-04     0.00000000e+00    
           1.07811869e-03    -6.77170510e-06     0.00000000e+00    
           1.21363718e-03    -1.20418954e-05     0.00000000e+00    
           1.14798662e-03     1.48866311e-04     0.00000000e+00    
           1.21363718e-03    -1.20418954e-05     0.00000000e+00    
           1.07811869e-03    -6.77170510e-06     0.00000000e+00    
           1.02978107e-03    -1.11115667e-04     0.00000000e+00    
           1.02400023e-03     5.51567828e-05     0.00000000e+00    
           1.18257955e-03     8.57846535e-05     0.00000000e+00    
           1.18579308e-03     1.52116467e-04     0.00000000e+00    
           4.23093967e-04    -9.80084315e-06     0.00000000e+00    
           4.16744035e-04     6.88569125e-05     0.00000000e+00    
           3.63493920e-04     1.15585877e-04     0.00000000e+00    
           2.35466228e-04     1.16686213e-04     0.00000000e+00    
           3.05563764e-04    -4.68672515e-05     0.00000000e+00    
           2.35466228e-04     1.16686213e-04     0.00000000e+00    
           3.63493920e-04     1.15585877e-04     0.00000000e+00    
           6.84396189e-04    -7.25370774e-05     0.00000000e+00    
           6.84978499e-04     5.84250301e-05     0.00000000e+00    
           3.35899007e-04    -1.00571146e-04     0.00000000e+00    
           3.26643582e-04     2.59772896e-05     0.00000000e+00    
           6.83611783e-04     3.89213856e-05     0.00000000e+00    
           6.91952882e-04     3.76446478e-05     0.00000000e+00    
           7.79524387e-04    -2.24512496e-05     0.00000000e+00    
           7.82562885e-04     1.22345256e-04     0.00000000e+00    
           7.09815766e-04    -5.41955487e-05     0.00000000e+00    
           7.15961796e-04    -4.34468211e-06     0.00000000e+00    
           5.16466447e-04     2.98342511e-05     0.00000000e+00    
           5.15082676e-04     2.24545758e-04     0.00000000e+00    
           1.35000004e-03     0.00000000e+00     0.00000000e+00    
           0.00000000e+00     0.00000000e+00     0.00000000e+00    
           0.00000000e+00     0.00000000e+00     0.00000000e+00    
           1.35000004e-03     0.00000000e+00     0.00000000e+00    
           9.30978917e-04     6.08758601e-05     0.00000000e+00    
           9.50486981e-04     6.75243864e-05     0.00000000e+00    
           9.66754102e-04     7.70906190e-05     0.00000000e+00    
           9.78801399e-04     8.88471041e-05     0.00000000e+00    
           9.86084458e-04     1.02640537e-04     0.00000000e+00    
           9.88883898e-04     1.17154676e-04     0.00000000e+00    
           9.86368163e-04     1.32874324e-04     0.00000000e+00    
           9.78059019e-04     1.48432053e-04     0.00000000e+00    
           9.64338542e-04     1.61799559e-04     0.00000000e+00    
           9.47685796e-04     1.70907879e-04     0.00000000e+00    
           9.28987691e-04     1.76304849e-04     0.00000000e+00    
           8.89069110e-04     1.74734814e-04     0.00000000e+00    
           8.70452262e-04     1.68304716e-04     0.00000000e+00    
           8.54820712e-04     1.58799652e-04     0.00000000e+00    
           8.43110029e-04     1.47380561e-04     0.00000000e+00    
           8.36284889e-04     1.34426242e-04     0.00000000e+00    
           8.34573992e-04     1.20866294e-04     0.00000000e+00    
           8.36542924e-04     1.07863518e-04     0.00000000e+00    
           8.41172179e-04     9.68043314e-05     0.00000000e+00    
           8.49092554e-04     8.66389528e-05     0.00000000e+00    
           8.65152164e-04     7.28638261e-05     0.00000000e+00    
           8.86750233e-04     6.26933834e-05     0.00000000e+00    
           8.45534145e-04     1.11291793e-05     0.00000000e+00    
           8.44580645e-04    -2.48007473e-06     0.00000000e+00    
           8.48327007e-04    -1.78338178e-05     0.00000000e+00    
           8.57572129e-04    -3.33335192e-05     0.00000000e+00    
           8.71336146e-04    -4.72018910e-05     0.00000000e+00    
           8.88530805e-04    -5.74600854e-05     0.00000000e+00    
           9.08117043e-04    -6.34049575e-05     0.00000000e+00    
           9.49461886e-04    -6.32571391e-05     0.00000000e+00    
           9.67446715e-04    -5.72734898e-05     0.00000000e+00    
           9.82684782e-04    -4.82793293e-05     0.00000000e+00    
           9.94273461e-04    -3.65744927e-05     0.00000000e+00    
           1.00267807e-03    -2.32880029e-05     0.00000000e+00    
           1.00748986e-03    -9.65819891e-06     0.00000000e+00    
           1.00797776e-03     3.85762087e-06     0.00000000e+00    
           9.94858798e-04     3.20367581e-05     0.00000000e+00    
           9.77671938e-04     4.65508783e-05     0.00000000e+00    
           9.56436852e-04     5.74963924e-05     0.00000000e+00    
           9.33926087e-04     6.24751410e-05     0.00000000e+00    
           9.11177718e-04     6.16573670e-05     0.00000000e+00    
           8.89691873e-04     5.58676838e-05     0.00000000e+00    
           8.71623168e-04     4.62961798e-05     0.00000000e+00    
           8.58747517e-04     3.42803942e-05     0.00000000e+00    
           1.28345843e-03     1.03504812e-04     0.00000000e+00    
           1.25506090e-03     1.02694270e-04     0.00000000e+00    
           1.22840540e-03     9.66761290e-05     0.00000000e+00    
           1.20550138e-03     8.60207365e-05     0.00000000e+00    
           1.18722045e-03     7.13158734e-05     0.00000000e+00    
           1.17330416e-03     5.37929627e-05     0.00000000e+00    
           1.16413238e-03     3.50236842e-05     0.00000000e+00    
           1.16164540e-03    -1.92034850e-06     0.00000000e+00    
           1.16915000e-03    -2.08372603e-05     0.00000000e+00    
           1.18435547e-03    -4.09509848e-05     0.00000000e+00    
           1.20568287e-03    -5.91101380e-05     0.00000000e+00    
           1.22965570e-03    -7.18355877e-05     0.00000000e+00    
           1.25466625e-03    -7.78879767e-05     0.00000000e+00    
           1.28098414e-03    -7.81798590e-05     0.00000000e+00    
          -1.71733827e-05    -6.24621898e-05     0.00000000e+00    
           4.37307017e-06    -4.76334644e-05     0.00000000e+00    
           2.08201072e-05    -2.96457492e-05     0.00000000e+00    
           3.17631238e-05    -1.10264182e-05     0.00000000e+00    
           3.59434744e-05     9.02858028e-06     0.00000000e+00    
           3.45818953e-05     2.88352621e-05     0.00000000e+00    
           2.49440691e-05     5.10917271e-05     0.00000000e+00    
           8.65884613e-06     7.19025920e-05     0.00000000e+00    
          -1.33066587e-05     8.81974120e-05     0.00000000e+00    
           1.24239794e-03    -2.00932682e-05     0.00000000e+00    
           1.23132148e-03    -1.75806254e-05     0.00000000e+00    
           1.21896050e-03    -1.73861445e-05     0.00000000e+00    
           1.20578089e-03    -1.96034744e-05     0.00000000e+00    
           1.19228032e-03    -2.48879933e-05     0.00000000e+00    
           1.18189876e-03    -3.19806350e-05     0.00000000e+00    
           1.17554714e-03    -3.91686808e-05     0.00000000e+00    
           1.17225130e-03    -4.50449443e-05     0.00000000e+00    
           1.17442722e-03    -5.58892170e-05     0.00000000e+00    
           1.17926614e-03    -6.10490606e-05     0.00000000e+00    
           1.18621904e-03    -6.52185117e-05     0.00000000e+00    
           1.19443436e-03    -6.85658888e-05     0.00000000e+00    
           1.20345759e-03    -7.05379643e-05     0.00000000e+00    
           1.21386047e-03    -7.17501534e-05     0.00000000e+00    
           1.22498046e-03    -7.17265575e-05     0.00000000e+00    
           1.23647123e-03    -7.02002944e-05     0.00000000e+00    
          -9.38318044e-05    -6.12283693e-05     0.00000000e+00    
          -8.75374681e-05    -5.46893607e-05     0.00000000e+00    
          -8.43288872e-05    -4.80408598e-05     0.00000000e+00    
          -8.53145248e-05    -4.04444290e-05     0.00000000e+00    
          -8.97356731e-05    -3.24877583e-05     0.00000000e+00    
           2.68707430e-04    -4.05713727e-05     0.00000000e+00    
           2.96830898e-04    -2.94177880e-05     0.00000000e+00    
           3.19824525e-04    -1.33527474e-05     0.00000000e+00    
           3.37618927e-04     6.30464501e-06     0.00000000e+00    
           3.50058544e-04     2.89463060e-05     0.00000000e+00    
           3.55894183e-04     5.34268365e-05     0.00000000e+00    
           3.54817050e-04     7.84103031e-05     0.00000000e+00    
           3.44490109e-04     1.03542341e-04     0.00000000e+00    
           3.24353954e-04     1.28008367e-04     0.00000000e+00    
           2.97156541e-04     1.47936473e-04     0.00000000e+00    
           2.66237825e-04     1.60203359e-04     0.00000000e+00    
           2.01586416e-04     1.60824377e-04     0.00000000e+00    
           1.71547712e-04     1.50557098e-04     0.00000000e+00    
           1.45863742e-04     1.34247035e-04     0.00000000e+00    
           1.26308412e-04     1.12861206e-04     0.00000000e+00    
           1.14331568e-04     8.79863946e-05     0.00000000e+00    
           1.10166831e-04     6.13773664e-05     0.00000000e+00    
           1.13825212e-04     3.39880426e-05     0.00000000e+00    
           1.26844578e-04     7.42034536e-06     0.00000000e+00    
           1.47028884e-04    -1.47333894e-05     0.00000000e+00    
           1.73404507e-04    -3.11229414e-05     0.00000000e+00    
           2.04175143e-04    -4.13570742e-05     0.00000000e+00    
           1.23155885e-03     2.25308349e-06     0.00000000e+00    
           1.24496839e-03     2.02329193e-05     0.00000000e+00    
           1.25320675e-03     4.13732450e-05     0.00000000e+00    
           1.25414238e-03     6.49751018e-05     0.00000000e+00    
           1.24721241e-03     8.92430835e-05     0.00000000e+00    
           1.23394292e-03     1.10972847e-04     0.00000000e+00    
           1.21567980e-03     1.28239233e-04     0.00000000e+00    
           1.19467126e-03     1.40310804e-04     0.00000000e+00    
           1.17217144e-03     1.46990657e-04     0.00000000e+00    
           1.12216792e-03     1.45965954e-04     0.00000000e+00    
           1.09661405e-03     1.37760391e-04     0.00000000e+00    
           1.07405731e-03     1.24716156e-04     0.00000000e+00    
           1.05656299e-03     1.08030035e-04     0.00000000e+00    
           1.04555476e-03     8.88524883e-05     0.00000000e+00    
           1.04009174e-03     6.88480723e-05     0.00000000e+00    
           1.03989302e-03     4.89405065e-05     0.00000000e+00    
           1.04482833e-03     3.04942914e-05     0.00000000e+00    
           1.05712912e-03     1.15357871e-05     0.00000000e+00    
           1.10055914e-03    -1.95840730e-05     0.00000000e+00    
           1.12472218e-03    -2.70051187e-05     0.00000000e+00    
           1.14931178e-03    -2.93490411e-05     0.00000000e+00    
           1.17297156e-03    -2.70181899e-05     0.00000000e+00    
           1.19461853e-03    -2.09184163e-05     0.00000000e+00    
           1.05513132e-03    -1.07961358e-04     0.00000000e+00    
           1.07908703e-03    -9.92875430e-05     0.00000000e+00    
           1.10052677e-03    -8.68842835e-05     0.00000000e+00    
           1.11565844e-03    -7.15174465e-05     0.00000000e+00    
           1.12584152e-03    -5.57363346e-05     0.00000000e+00    
           1.13035354e-03    -4.02831647e-05     0.00000000e+00    
           1.13033329e-03    -2.43759296e-05     0.00000000e+00    
           1.12638820e-03    -7.44950921e-06     0.00000000e+00    
           1.11519732e-03     1.08114982e-05     0.00000000e+00    
           1.09679927e-03     2.93218545e-05     0.00000000e+00    
           1.07412925e-03     4.36352930e-05     0.00000000e+00    
           1.04954746e-03     5.20349749e-05     0.00000000e+00    
           9.99491313e-04     5.28853998e-05     0.00000000e+00    
           9.77606163e-04     4.59143739e-05     0.00000000e+00    
           9.58818302e-04     3.58571815e-05     0.00000000e+00    
           9.43377090e-04     2.19552112e-05     0.00000000e+00    
           9.31805698e-04     5.08277344e-06     0.00000000e+00    
           9.24724503e-04    -1.35783021e-05     0.00000000e+00    
           9.24030086e-04    -3.36911799e-05     0.00000000e+00    
           9.30359238e-04    -5.39497560e-05     0.00000000e+00    
           9.42552579e-04    -7.31748078e-05     0.00000000e+00    
           9.59906960e-04    -8.95692210e-05     0.00000000e+00    
           9.81041230e-04    -1.01584330e-04     0.00000000e+00    
           1.00468053e-03    -1.08854343e-04     0.00000000e+00    
           1.19701948e-03     8.70864751e-05     0.00000000e+00    
           1.21074787e-03     9.12355026e-05     0.00000000e+00    
           1.22211361e-03     9.79760298e-05     0.00000000e+00    
           1.22971484e-03     1.06671221e-04     0.00000000e+00    
           1.23306562e-03     1.16153285e-04     0.00000000e+00    
           1.23234699e-03     1.25766252e-04     0.00000000e+00    
           1.22756010e-03     1.34907619e-04     0.00000000e+00    
           1.21949334e-03     1.42388686e-04     0.00000000e+00    
           1.20921584e-03     1.47826620e-04     0.00000000e+00    
           1.19818305e-03     1.50501815e-04     0.00000000e+00    
           1.17277063e-03     1.51944128e-04     0.00000000e+00    
           1.15987821e-03     1.49787724e-04     0.00000000e+00    
           1.14826206e-03     1.45180689e-04     0.00000000e+00    
           1.13874231e-03     1.38772230e-04     0.00000000e+00    
           1.13309035e-03     1.29678156e-04     0.00000000e+00    
           1.13232015e-03     1.18690303e-04     0.00000000e+00    
           1.13666989e-03     1.07004555e-04     0.00000000e+00    
           1.14559568e-03     9.67782325e-05     0.00000000e+00    
           1.15633279e-03     9.01381864e-05     0.00000000e+00    
           1.16843684e-03     8.69220967e-05     0.00000000e+00    
           4.38435352e-04    -8.83585471e-06     0.00000000e+00    
           4.51906526e-04    -5.92304241e-06     0.00000000e+00    
           4.63080709e-04     1.54960077e-07     0.00000000e+00    
           4.72519954e-04     9.16556564e-06     0.00000000e+00    
           4.77510708e-04     1.99265596e-05     0.00000000e+00    
           4.78961651e-04     3.04448949e-05     0.00000000e+00    
           4.77202353e-04     4.03303020e-05     0.00000000e+00    
           4.70930274e-04     5.04360687e-05     0.00000000e+00    
           4.60326439e-04     5.78636973e-05     0.00000000e+00    
           4.47660568e-04     6.29877759e-05     0.00000000e+00    
           4.32541041e-04     6.73210307e-05     0.00000000e+00    
           4.01550176e-04     6.74422336e-05     0.00000000e+00    
           3.88565852e-04     6.30838549e-05     0.00000000e+00    
           3.78426543e-04     5.66174822e-05     0.00000000e+00    
           3.70668742e-04     4.86630815e-05     0.00000000e+00    
           3.65546672e-04     3.95167808e-05     0.00000000e+00    
           3.63457133e-04     2.96853741e-05     0.00000000e+00    
           3.65615764e-04     1.95856828e-05     0.00000000e+00    
           3.71693633e-04     1.00209809e-05     0.00000000e+00    
           3.81475111e-04     2.20034667e-06     0.00000000e+00    
           3.93673108e-04    -4.05253058e-06     0.00000000e+00    
           4.07854677e-04    -8.04181764e-06     0.00000000e+00    
           2.17239241e-04     1.02858765e-04     0.00000000e+00    
           2.02700641e-04     8.62496745e-05     0.00000000e+00    
           1.93384767e-04     6.64216132e-05     0.00000000e+00    
           1.90418912e-04     4.45430560e-05     0.00000000e+00    
           1.94788299e-04     2.22630497e-05     0.00000000e+00    
           2.09225167e-04    -1.35939740e-06     0.00000000e+00    
           2.29841113e-04    -2.14730899e-05     0.00000000e+00    
           2.54027895e-04    -3.55017619e-05     0.00000000e+00    
           2.79695145e-04    -4.40734984e-05     0.00000000e+00    
           3.30288342e-04    -4.41439770e-05     0.00000000e+00    
           3.52762669e-04    -3.70011767e-05     0.00000000e+00    
           3.73218209e-04    -2.51904057e-05     0.00000000e+00    
           3.90469562e-04    -8.65700986e-06     0.00000000e+00    
           4.02889418e-04     1.20699715e-05     0.00000000e+00    
           4.08154971e-04     3.49637921e-05     0.00000000e+00    
           4.06444276e-04     5.82985012e-05     0.00000000e+00    
           3.97958182e-04     8.06576645e-05     0.00000000e+00    
           3.83210223e-04     1.00139099e-04     0.00000000e+00    
           3.39180493e-04     1.26682731e-04     0.00000000e+00    
           3.12478718e-04     1.32210276e-04     0.00000000e+00    
           2.84391252e-04     1.33108450e-04     0.00000000e+00    
           2.58076092e-04     1.27322230e-04     0.00000000e+00    
           7.04008969e-04    -6.98612639e-05     0.00000000e+00    
           7.21191696e-04    -6.38755810e-05     0.00000000e+00    
           7.36038084e-04    -5.48541830e-05     0.00000000e+00    
           7.48796214e-04    -4.30578366e-05     0.00000000e+00    
           7.58145412e-04    -2.92898294e-05     0.00000000e+00    
           7.62393407e-04    -1.38270943e-05     0.00000000e+00    
           7.61005445e-04     2.88233855e-06     0.00000000e+00    
           7.53441127e-04     2.00937520e-05     0.00000000e+00    
           7.40814954e-04     3.56750279e-05     0.00000000e+00    
           7.25106045e-04     4.72304346e-05     0.00000000e+00    
           7.06341467e-04     5.45380390e-05     0.00000000e+00    
           6.62756502e-04     5.76539824e-05     0.00000000e+00    
           6.41832419e-04     5.24280586e-05     0.00000000e+00    
           6.23499975e-04     4.26816005e-05     0.00000000e+00    
           6.09488110e-04     2.84876896e-05     0.00000000e+00    
           6.00581581e-04     1.15165694e-05     0.00000000e+00    
           5.97498904e-04    -6.94523169e-06     0.00000000e+00    
           6.00484607e-04    -2.52699247e-05     0.00000000e+00    
           6.09352777e-04    -4.15977884e-05     0.00000000e+00    
           6.23627857e-04    -5.52011479e-05     0.00000000e+00    