<?xml version="1.0"?>
<VTKFile type="UnstructuredGrid" version="0.1">
  <UnstructuredGrid>
    <Piece NumberOfPoints="1034" NumberOfCells="1614">
      <Points>
        <DataArray type="Float32" NumberOfComponents="3">
           5.21582007e-01     5.11657000e-01     0.00000000e+00    
           5.07319987e-01     5.11657000e-01     0.00000000e+00    
           4.65243995e-01     5.17907977e-01     0.00000000e+00    
           4.65243995e-01     5.04921973e-01     0.00000000e+00    
           4.75246996e-01     5.11415005e-01     0.00000000e+00    
           5.33852994e-01     5.04921973e-01     0.00000000e+00    
           5.33852994e-01     5.17907977e-01     0.00000000e+00    
           4.83779997e-01     5.34618974e-01     0.00000000e+00    
           4.68984991e-01     5.34618974e-01     0.00000000e+00    
           4.76381987e-01     5.23841977e-01     0.00000000e+00    
           4.68984991e-01     4.66010004e-01     0.00000000e+00    
           4.83779997e-01     4.66010004e-01     0.00000000e+00    
           4.99920011e-01     5.34618974e-01     0.00000000e+00    
           4.89203990e-01     5.34618974e-01     0.00000000e+00    
           4.94562000e-01     5.22280991e-01     0.00000000e+00    
           4.89203990e-01     4.66010004e-01     0.00000000e+00    
           4.99920011e-01     4.66010004e-01     0.00000000e+00    
           5.32517016e-01     4.74112004e-01     0.00000000e+00    
           5.17961025e-01     4.74112004e-01     0.00000000e+00    
           5.33852994e-01     5.19801974e-01     0.00000000e+00    
           5.33852994e-01     5.29603004e-01     0.00000000e+00    
           5.19536972e-01     5.24702013e-01     0.00000000e+00    
           4.65243995e-01     5.29603004e-01     0.00000000e+00    
           4.65243995e-01     5.19801974e-01     0.00000000e+00    
           4.92487997e-01     5.17117977e-01     0.00000000e+00    
           4.76904988e-01     5.17117977e-01     0.00000000e+00    
           5.17996013e-01     5.27033985e-01     0.00000000e+00    
           5.04473984e-01     5.27033985e-01     0.00000000e+00    
           5.08446991e-01     4.83435005e-01     0.00000000e+00    
           4.94414002e-01     4.83435005e-01     0.00000000e+00    
           4.65243995e-01     4.83101994e-01     0.00000000e+00    
           4.65243995e-01     4.74415004e-01     0.00000000e+00    
           4.78336990e-01     4.78758007e-01     0.00000000e+00    
           5.33852994e-01     4.74415004e-01     0.00000000e+00    
           5.33852994e-01     4.83101994e-01     0.00000000e+00    
           4.80668008e-01     4.95810986e-01     0.00000000e+00    
           4.66084987e-01     4.95810986e-01     0.00000000e+00    
           4.93930012e-01     4.79214013e-01     0.00000000e+00    
           4.78967011e-01     4.79214013e-01     0.00000000e+00    
           5.09284973e-01     4.97658014e-01     0.00000000e+00    
           4.95503992e-01     4.97658014e-01     0.00000000e+00    
           5.33011973e-01     5.01751006e-01     0.00000000e+00    
           5.17829001e-01     5.01751006e-01     0.00000000e+00    
           4.95451003e-01     5.00564992e-01     0.00000000e+00    
           4.80922014e-01     5.00564992e-01     0.00000000e+00    
           5.25367022e-01     4.88312006e-01     0.00000000e+00    
           5.09521008e-01     4.88312006e-01     0.00000000e+00    
           4.65243995e-01     5.34618974e-01     0.00000000e+00    
           4.65243995e-01     4.66010004e-01     0.00000000e+00    
           5.33852994e-01     4.66010004e-01     0.00000000e+00    
           5.33852994e-01     5.34618974e-01     0.00000000e+00    
           5.21338999e-01     5.13502657e-01     0.00000000e+00    
           5.20626605e-01     5.15222490e-01     0.00000000e+00    
           5.19493401e-01     5.16699374e-01     0.00000000e+00    
           5.18016517e-01     5.17832637e-01     0.00000000e+00    
           5.16296625e-01     5.18545032e-01     0.00000000e+00    
           5.14451027e-01     5.18787980e-01     0.00000000e+00    
           5.12605369e-01     5.18545032e-01     0.00000000e+00    
           5.10885477e-01     5.17832637e-01     0.00000000e+00    
           5.09408593e-01     5.16699374e-01     0.00000000e+00    
           5.08275390e-01     5.15222490e-01     0.00000000e+00    
           5.07562995e-01     5.13502657e-01     0.00000000e+00    
           5.07562995e-01     5.09811342e-01     0.00000000e+00    
           5.08275390e-01     5.08091509e-01     0.00000000e+00    
           5.09408593e-01     5.06614625e-01     0.00000000e+00    
           5.10885477e-01     5.05481362e-01     0.00000000e+00    
           5.12605369e-01     5.04768968e-01     0.00000000e+00    
           5.14451027e-01     5.04526019e-01     0.00000000e+00    
           5.16296625e-01     5.04768968e-01     0.00000000e+00    
           5.18016517e-01     5.05481362e-01     0.00000000e+00    
           5.19493401e-01     5.06614625e-01     0.00000000e+00    
           5.20626605e-01     5.08091509e-01     0.00000000e+00    
           5.21338999e-01     5.09811342e-01     0.00000000e+00    
           4.66931671e-01     5.04409373e-01     0.00000000e+00    
           4.68693614e-01     5.04328012e-01     0.00000000e+00    
           4.70421344e-01     5.04682958e-01     0.00000000e+00    
           4.72008497e-01     5.05452335e-01     0.00000000e+00    
           4.73357379e-01     5.06588817e-01     0.00000000e+00    
           4.74384934e-01     5.08022368e-01     0.00000000e+00    
           4.75027919e-01     5.09664834e-01     0.00000000e+00    
           4.75028187e-01     5.13165236e-01     0.00000000e+00    
           4.74385172e-01     5.14807761e-01     0.00000000e+00    
           4.73357558e-01     5.16241372e-01     0.00000000e+00    
           4.72008646e-01     5.17377913e-01     0.00000000e+00    
           4.70421433e-01     5.18147290e-01     0.00000000e+00    
           4.68693614e-01     5.18502235e-01     0.00000000e+00    
           4.66931641e-01     5.18420875e-01     0.00000000e+00    
           5.32303810e-01     5.16964078e-01     0.00000000e+00    
           5.31043947e-01     5.15658796e-01     0.00000000e+00    
           5.30155540e-01     5.14077127e-01     0.00000000e+00    
           5.29696345e-01     5.12322068e-01     0.00000000e+00    
           5.29696345e-01     5.10507941e-01     0.00000000e+00    
           5.30155540e-01     5.08752882e-01     0.00000000e+00    
           5.31043947e-01     5.07171214e-01     0.00000000e+00    
           5.32303810e-01     5.05865932e-01     0.00000000e+00    
           4.68517244e-01     5.32760799e-01     0.00000000e+00    
           4.68509018e-01     5.30844629e-01     0.00000000e+00    
           4.68960851e-01     5.28982460e-01     0.00000000e+00    
           4.69846308e-01     5.27283132e-01     0.00000000e+00    
           4.71113682e-01     5.25845945e-01     0.00000000e+00    
           4.72688884e-01     5.24754822e-01     0.00000000e+00    
           4.74479854e-01     5.24073541e-01     0.00000000e+00    
           4.78284091e-01     5.24073601e-01     0.00000000e+00    
           4.80075032e-01     5.24754822e-01     0.00000000e+00    
           4.81650203e-01     5.25845885e-01     0.00000000e+00    
           4.82917547e-01     5.27283013e-01     0.00000000e+00    
           4.83803004e-01     5.28982282e-01     0.00000000e+00    
           4.84254897e-01     5.30844331e-01     0.00000000e+00    
           4.84246761e-01     5.32760441e-01     0.00000000e+00    
           4.82887864e-01     4.67691004e-01     0.00000000e+00    
           4.81620818e-01     4.69110936e-01     0.00000000e+00    
           4.80051905e-01     4.70188022e-01     0.00000000e+00    
           4.78271484e-01     4.70860153e-01     0.00000000e+00    
           4.76382166e-01     4.71088618e-01     0.00000000e+00    
           4.74492878e-01     4.70860243e-01     0.00000000e+00    
           4.72712427e-01     4.70188200e-01     0.00000000e+00    
           4.71143454e-01     4.69111174e-01     0.00000000e+00    
           4.69876349e-01     4.67691302e-01     0.00000000e+00    
           4.88103986e-01     5.33086061e-01     0.00000000e+00    
           4.87431526e-01     5.31323195e-01     0.00000000e+00    
           4.87231195e-01     5.29447019e-01     0.00000000e+00    
           4.87516224e-01     5.27581930e-01     0.00000000e+00    
           4.88267750e-01     5.25851250e-01     0.00000000e+00    
           4.89436030e-01     5.24369657e-01     0.00000000e+00    
           4.90943670e-01     5.23235261e-01     0.00000000e+00    
           4.92690891e-01     5.22523046e-01     0.00000000e+00    
           4.96432930e-01     5.22523701e-01     0.00000000e+00    
           4.98180002e-01     5.23235798e-01     0.00000000e+00    
           4.99687493e-01     5.24370134e-01     0.00000000e+00    
           5.00855684e-01     5.25851607e-01     0.00000000e+00    
           5.01607120e-01     5.27582109e-01     0.00000000e+00    
           5.01892149e-01     5.29447079e-01     0.00000000e+00    
           5.01691818e-01     5.31323016e-01     0.00000000e+00    
           5.01019418e-01     5.33085763e-01     0.00000000e+00    
           4.98371124e-01     4.67269689e-01     0.00000000e+00    
           4.96539861e-01     4.68064904e-01     0.00000000e+00    
           4.94562000e-01     4.68336672e-01     0.00000000e+00    
           4.92584139e-01     4.68064904e-01     0.00000000e+00    
           4.90752876e-01     4.67269689e-01     0.00000000e+00    
           5.32269001e-01     4.75995690e-01     0.00000000e+00    
           5.31541944e-01     4.77750987e-01     0.00000000e+00    
           5.30385315e-01     4.79258329e-01     0.00000000e+00    
           5.28877974e-01     4.80414927e-01     0.00000000e+00    
[...]
      <PointData>
        <DataArray type="Float32" Name="Displacement" NumberOfComponents="3">
           4.60884301e-04     1.49795569e-05     0.00000000e+00    
           4.60585783e-04     8.01345086e-05     0.00000000e+00    
           5.07953693e-04    -1.16650665e-06     0.00000000e+00    
           4.25916718e-04     6.94344976e-07     0.00000000e+00    
           4.68031445e-04    -4.03020531e-05     0.00000000e+00    
           4.25916718e-04     6.94344976e-07     0.00000000e+00    
           5.07953693e-04    -1.16650665e-06     0.00000000e+00    
           6.84001774e-04    -4.17775227e-05     0.00000000e+00    
           6.85470935e-04     5.02539515e-05     0.00000000e+00    
           6.01586769e-04     6.60321666e-06     0.00000000e+00    
          -1.45290724e-05     5.02539515e-05     0.00000000e+00    
          -1.59982319e-05    -4.17775227e-05     0.00000000e+00    
           6.48471178e-04    -3.93718401e-05     0.00000000e+00    
           6.51935290e-04    -1.20687391e-05     0.00000000e+00    
           6.00423024e-04    -2.93235698e-05     0.00000000e+00    
          -4.80646813e-05    -1.20687391e-05     0.00000000e+00    
          -5.15288011e-05    -3.93718401e-05     0.00000000e+00    
           1.16475647e-04    -1.36538338e-05     0.00000000e+00    
           1.14095739e-04     7.01038298e-05     0.00000000e+00    
           5.54701139e-04    -1.10872361e-05     0.00000000e+00    
           6.28607697e-04    -1.28038519e-05     0.00000000e+00    
           5.92940778e-04     6.96298812e-05     0.00000000e+00    
           6.28607697e-04    -1.28038519e-05     0.00000000e+00    
           5.54701139e-04    -1.10872361e-05     0.00000000e+00    
           5.26137825e-04    -5.80273663e-05     0.00000000e+00    
           5.21621841e-04     3.20771614e-05     0.00000000e+00    
           6.11235097e-04     3.11971053e-05     0.00000000e+00    
           6.13253913e-04     6.27985864e-05     0.00000000e+00    
           2.12896557e-04    -8.30369663e-06     0.00000000e+00    
           2.06243814e-04     2.87530529e-05     0.00000000e+00    
           1.71017702e-04     4.55718327e-05     0.00000000e+00    
           1.15669478e-04     4.45093101e-05     0.00000000e+00    
           1.47571511e-04    -1.95731409e-05     0.00000000e+00    
           1.15669478e-04     4.45093101e-05     0.00000000e+00    
           1.71017702e-04     4.55718327e-05     0.00000000e+00    
           3.37640726e-04    -3.77995711e-05     0.00000000e+00    
           3.37792910e-04     2.44885050e-05     0.00000000e+00    
           1.65615449e-04    -3.88444787e-05     0.00000000e+00    
           1.57430579e-04     1.18288699e-05     0.00000000e+00    
           3.32294585e-04     5.78526715e-06     0.00000000e+00    
           3.38432728e-04     1.67857979e-05     0.00000000e+00    
           3.88205837e-04    -2.26896736e-05     0.00000000e+00    
           3.89435678e-04     5.18919733e-05     0.00000000e+00    
           3.48438247e-04    -2.03175077e-05     0.00000000e+00    
           3.52560804e-04    -4.70131823e-07     0.00000000e+00    
           2.55008752e-04     6.03000990e-06     0.00000000e+00    
           2.53864535e-04     8.71971424e-05     0.00000000e+00    
           6.99999975e-04     0.00000000e+00     0.00000000e+00    
           0.00000000e+00     0.00000000e+00     0.00000000e+00    
           0.00000000e+00     0.00000000e+00     0.00000000e+00    
           6.99999975e-04     0.00000000e+00     0.00000000e+00    
           4.73405322e-04     1.60770560e-05     0.00000000e+00    
           4.84725839e-04     1.98181242e-05     0.00000000e+00    
           4.94182517e-04     2.50765224e-05     0.00000000e+00    
           5.01169125e-04     3.13440505e-05     0.00000000e+00    
           5.05466189e-04     3.86610591e-05     0.00000000e+00    
           5.07275981e-04     4.64896548e-05     0.00000000e+00    
           5.05883014e-04     5.52133315e-05     0.00000000e+00    
           5.00889670e-04     6.40192811e-05     0.00000000e+00    
           4.92853462e-04     7.15278366e-05     0.00000000e+00    
           4.83126350e-04     7.66186713e-05     0.00000000e+00    
           4.72158077e-04     7.95290325e-05     0.00000000e+00    
           4.49070882e-04     7.82603383e-05     0.00000000e+00    
           4.38369927e-04     7.44429781e-05     0.00000000e+00    
           4.29470470e-04     6.89827066e-05     0.00000000e+00    
           4.22957062e-04     6.26413312e-05     0.00000000e+00    
           4.19353892e-04     5.56107589e-05     0.00000000e+00    
           4.18593874e-04     4.84367156e-05     0.00000000e+00    
           4.19791351e-04     4.17431620e-05     0.00000000e+00    
           4.22302779e-04     3.61649472e-05     0.00000000e+00    
           4.26340877e-04     3.11901895e-05     0.00000000e+00    
           4.35366092e-04     2.31912782e-05     0.00000000e+00    
           4.47798317e-04     1.72030996e-05     0.00000000e+00    
           4.23998892e-04    -3.94297240e-06     0.00000000e+00    
           4.23643767e-04    -9.93072172e-06     0.00000000e+00    
           4.25582490e-04    -1.71751271e-05     0.00000000e+00    
           4.30445099e-04    -2.47700391e-05     0.00000000e+00    
           4.37641866e-04    -3.16632140e-05     0.00000000e+00    
           4.46687103e-04    -3.67057764e-05     0.00000000e+00    
           4.56993876e-04    -3.95094794e-05     0.00000000e+00    
           4.78681555e-04    -3.91792346e-05     0.00000000e+00    
           4.87929065e-04    -3.64170010e-05     0.00000000e+00    
           4.95744811e-04    -3.22880514e-05     0.00000000e+00    
           5.01699455e-04    -2.67979012e-05     0.00000000e+00    
           5.06163691e-04    -2.04679745e-05     0.00000000e+00    
           5.08876692e-04    -1.39902286e-05     0.00000000e+00    
           5.09374251e-04    -7.51455218e-06     0.00000000e+00    
           5.02854818e-04     6.56374959e-06     0.00000000e+00    
           4.93603526e-04     1.39885988e-05     0.00000000e+00    
           4.82087053e-04     1.95103839e-05     0.00000000e+00    
           4.69845836e-04     2.18062414e-05     0.00000000e+00    
           4.57385642e-04     2.09345799e-05     0.00000000e+00    
           4.45482816e-04     1.71828597e-05     0.00000000e+00    
           4.35179827e-04     1.11965028e-05     0.00000000e+00    
           4.29222593e-04     5.14980093e-06     0.00000000e+00    
           6.69508416e-04     5.25985488e-05     0.00000000e+00    
           6.53601950e-04     5.19699024e-05     0.00000000e+00    
           6.38863479e-04     4.86695099e-05     0.00000000e+00    
           6.26331894e-04     4.30700893e-05     0.00000000e+00    
           6.16390491e-04     3.53409232e-05     0.00000000e+00    
           6.08750095e-04     2.61298192e-05     0.00000000e+00    
           6.03638007e-04     1.63166624e-05     0.00000000e+00    
           6.02079264e-04    -2.76370952e-06     0.00000000e+00    
           6.06105954e-04    -1.28077490e-05     0.00000000e+00    
           6.14495832e-04    -2.38288394e-05     0.00000000e+00    
           6.26341149e-04    -3.39963917e-05     0.00000000e+00    
           6.39753125e-04    -4.11146866e-05     0.00000000e+00    
           6.53868658e-04    -4.45432961e-05     0.00000000e+00    
           6.68804161e-04    -4.46977283e-05     0.00000000e+00    
          -1.62770880e-06    -3.58874822e-05     0.00000000e+00    
           1.06560292e-05    -2.76843111e-05     0.00000000e+00    
           1.99671977e-05    -1.81356609e-05     0.00000000e+00    
           2.60295401e-05    -8.43272937e-06     0.00000000e+00    
           2.84640282e-05     1.93700475e-06     0.00000000e+00    
           2.78834177e-05     1.23089239e-05     0.00000000e+00    
           2.22803246e-05     2.43913400e-05     0.00000000e+00    
           1.24997841e-05     3.58133802e-05     0.00000000e+00    
          -1.64554990e-07     4.46464801e-05     0.00000000e+00    
           6.45758933e-04    -8.91100990e-06     0.00000000e+00    
           6.38648402e-04    -7.30860711e-06     0.00000000e+00    
           6.30668597e-04    -7.20790558e-06     0.00000000e+00    
           6.22029882e-04    -8.70113399e-06     0.00000000e+00    
           6.12997275e-04    -1.23704431e-05     0.00000000e+00    
           6.05705660e-04    -1.76861304e-05     0.00000000e+00    
           6.01547770e-04    -2.26105512e-05     0.00000000e+00    
           6.00025116e-04    -2.61444711e-05     0.00000000e+00    
           6.02144573e-04    -3.26310728e-05     0.00000000e+00    
           6.05290988e-04    -3.56859964e-05     0.00000000e+00    
           6.09730545e-04    -3.81774662e-05     0.00000000e+00    
           6.14934659e-04    -4.01268953e-05     0.00000000e+00    
           6.20522886e-04    -4.11895380e-05     0.00000000e+00    
           6.26879337e-04    -4.18837153e-05     0.00000000e+00    
           6.33873628e-04    -4.21236582e-05     0.00000000e+00    
           6.41409191e-04    -4.14370224e-05     0.00000000e+00    
          -4.54367255e-05    -3.58614598e-05     0.00000000e+00    
          -4.10610264e-05    -3.15471771e-05     0.00000000e+00    
          -3.88157023e-05    -2.69476277e-05     0.00000000e+00    
          -3.93657756e-05    -2.17913603e-05     0.00000000e+00    
          -4.26346924e-05    -1.66499249e-05     0.00000000e+00    
           1.30061322e-04    -1.16998945e-05     0.00000000e+00    
           1.41650715e-04    -7.37501068e-06     0.00000000e+00    
           1.50983818e-04    -2.21285541e-06     0.00000000e+00    
           1.58791154e-04     4.64653795e-06     0.00000000e+00    
           1.64707759e-04     1.31115894e-05     0.00000000e+00    
           1.67966849e-04     2.25318945e-05     0.00000000e+00    
           1.68395825e-04     3.24492321e-05     0.00000000e+00    
           1.64341574e-04     4.29393585e-05     0.00000000e+00    
           1.55335656e-04     5.38101667e-05     0.00000000e+00    
           1.42906618e-04     6.28337657e-05     0.00000000e+00    
           1.28808126e-04     6.83610415e-05     0.00000000e+00    
           9.95466180e-05     6.87889260e-05     0.00000000e+00    
           8.60309738e-05     6.45133186e-05     0.00000000e+00    
           7.45464349e-05     5.77760802e-05     0.00000000e+00    
           6.58846038e-05     4.89868980e-05     0.00000000e+00    
           6.05939349e-05     3.87196815e-05     0.00000000e+00    
           5.88267758e-05     2.75320326e-05     0.00000000e+00    
           6.09079907e-05     1.57990253e-05     0.00000000e+00    
           6.71629896e-05     4.70494479e-06     0.00000000e+00    
           7.64407378e-05    -4.14184342e-06     0.00000000e+00    
           8.83381435e-05    -1.02171234e-05     0.00000000e+00    
           1.02147926e-04    -1.34872162e-05     0.00000000e+00    
           6.38025929e-04    -5.47479658e-06     0.00000000e+00    
           6.45106367e-04     3.73191733e-06     0.00000000e+00    
           6.49572874e-04     1.45397908e-05     0.00000000e+00    
           6.50190341e-04     2.66600273e-05     0.00000000e+00    
           6.46405737e-04     3.92475122e-05     0.00000000e+00    
           6.39129139e-04     5.04861855e-05     0.00000000e+00    
           6.29231101e-04     5.93062541e-05     0.00000000e+00    
           6.17920188e-04     6.54366959e-05     0.00000000e+00    
           6.05900073e-04     6.87385254e-05     0.00000000e+00    
           5.78934443e-04     6.80440280e-05     0.00000000e+00    
           5.64980495e-04     6.36619734e-05     0.00000000e+00    
           5.52700425e-04     5.68277428e-05     0.00000000e+00    
           5.43306640e-04     4.82893520e-05     0.00000000e+00    
           5.37430053e-04     3.84957566e-05     0.00000000e+00    
           5.34439168e-04     2.82757610e-05     0.00000000e+00    
           5.34176826e-04     1.80108964e-05     0.00000000e+00    
           5.36571257e-04     8.37985044e-06     0.00000000e+00    
           5.43143891e-04    -1.51632798e-06     0.00000000e+00    
           5.67136332e-04    -1.77262064e-05     0.00000000e+00    
           5.80519612e-04    -2.13871808e-05     0.00000000e+00    
           5.94025652e-04    -2.22845920e-05     0.00000000e+00    
           6.06891932e-04    -2.07363773e-05     0.00000000e+00    
           6.18523976e-04    -1.73921944e-05     0.00000000e+00    
           5.40663605e-04    -5.60373956e-05     0.00000000e+00    
           5.54547179e-04    -5.07633958e-05     0.00000000e+00    
           5.66976378e-04    -4.32945963e-05     0.00000000e+00    
           5.75291808e-04    -3.47809764e-05     0.00000000e+00    
           5.80310822e-04    -2.68880231e-05     0.00000000e+00    
           5.82332083e-04    -1.91743839e-05     0.00000000e+00    
           5.82189823e-04    -1.10957562e-05     0.00000000e+00    
           5.80069493e-04    -2.22687913e-06     0.00000000e+00    
           5.73759258e-04     7.65117147e-06     0.00000000e+00    
           5.63293754e-04     1.79227663e-05     0.00000000e+00    
           5.50245226e-04     2.58960663e-05     0.00000000e+00    
           5.36174222e-04     3.04602509e-05     0.00000000e+00    
           5.07814693e-04     3.08086892e-05     0.00000000e+00    
           4.95728687e-04     2.71763511e-05     0.00000000e+00    
           4.85420605e-04     2.21616228e-05     0.00000000e+00    
           4.76834073e-04     1.50139022e-05     0.00000000e+00    
           4.70194180e-04     6.20725132e-06     0.00000000e+00    
           4.65849094e-04    -3.66734571e-06     0.00000000e+00    
           4.65053425e-04    -1.45658787e-05     0.00000000e+00    
           4.68533719e-04    -2.58428008e-05     0.00000000e+00    
           4.75706125e-04    -3.67124885e-05     0.00000000e+00    
           4.85816738e-04    -4.60207339e-05     0.00000000e+00    
           4.98037145e-04    -5.28000201e-05     0.00000000e+00    
           5.11695922e-04    -5.68745854e-05     0.00000000e+00    
           6.18973805e-04     3.18295934e-05     0.00000000e+00    
           6.26433059e-04     3.39054823e-05     0.00000000e+00    
           6.32614014e-04     3.72816212e-05     0.00000000e+00    
           6.36698969e-04     4.15671639e-05     0.00000000e+00    
           6.38403115e-04     4.62342723e-05     0.00000000e+00    
           6.37783553e-04     5.09525962e-05     0.00000000e+00    
           6.35029748e-04     5.52621859e-05     0.00000000e+00    
           6.30662194e-04     5.87029135e-05     0.00000000e+00    
           6.25197019e-04     6.10941061e-05     0.00000000e+00    
           6.19535393e-04     6.20164865e-05     0.00000000e+00    
           6.06444257e-04     6.32267038e-05     0.00000000e+00    
           5.99373598e-04     6.26553665e-05     0.00000000e+00    
           5.92950848e-04     6.07820912e-05     0.00000000e+00    
           5.87609946e-04     5.79899279e-05     0.00000000e+00    
           5.84243971e-04     5.36270163e-05     0.00000000e+00    
           5.83539135e-04     4.80059971e-05     0.00000000e+00    
           5.86115930e-04     4.16895600e-05     0.00000000e+00    
           5.91285992e-04     3.63322397e-05     0.00000000e+00    
           5.97182428e-04     3.30931653e-05     0.00000000e+00    
           6.03674154e-04     3.17022859e-05     0.00000000e+00    
           2.21291848e-04    -7.58219312e-06     0.00000000e+00    
           2.28362813e-04    -6.65845209e-06     0.00000000e+00    
           2.34319683e-04    -4.57365786e-06     0.00000000e+00    
           2.39920293e-04    -4.98443626e-07     0.00000000e+00    
           2.43423783e-04     5.17950093e-06     0.00000000e+00    
           2.44357478e-04     1.05945674e-05     0.00000000e+00    
           2.42973038e-04     1.57470331e-05     0.00000000e+00    
           2.38693028e-04     2.10715480e-05     0.00000000e+00    
           2.32128543e-04     2.46777454e-05     0.00000000e+00    
           2.24383359e-04     2.71879944e-05     0.00000000e+00    
           2.15433698e-04     2.87965413e-05     0.00000000e+00    
           1.97913134e-04     2.76249611e-05     0.00000000e+00    
           1.91478000e-04     2.55733285e-05     0.00000000e+00    
           1.86945632e-04     2.29631005e-05     0.00000000e+00    
           1.83243959e-04     1.93858305e-05     0.00000000e+00    
           1.80627045e-04     1.50342385e-05     0.00000000e+00    
           1.79507464e-04     1.02084778e-05     0.00000000e+00    
           1.80795352e-04     5.16320824e-06     0.00000000e+00    
           1.84217468e-04     3.85838291e-07     0.00000000e+00    
           1.89691957e-04    -3.48381127e-06     0.00000000e+00    
           1.96590147e-04    -6.43286603e-06     0.00000000e+00    
           2.04551994e-04    -8.02164959e-06     0.00000000e+00    
           1.08043248e-04     4.01859761e-05     0.00000000e+00    
           1.01448357e-04     3.46770248e-05     0.00000000e+00    
           9.68244422e-05     2.75742368e-05     0.00000000e+00    
           9.45637439e-05     1.92422449e-05     0.00000000e+00    
           9.60012330e-05     9.95847495e-06     0.00000000e+00    
           1.02794293e-04    -6.76659624e-07     0.00000000e+00    
           1.12789647e-04    -9.69838038e-06     0.00000000e+00    
           1.24342390e-04    -1.57117320e-05     0.00000000e+00    
           1.36172443e-04    -1.88263202e-05     0.00000000e+00    
           1.57898772e-04    -1.86992602e-05     0.00000000e+00    
           1.67190417e-04    -1.64499434e-05     0.00000000e+00    
           1.76005182e-04    -1.20847990e-05     0.00000000e+00    
           1.83689786e-04    -5.57070553e-06     0.00000000e+00    
           1.89426573e-04     3.03288334e-06     0.00000000e+00    
           1.91748913e-04     1.26865361e-05     0.00000000e+00    
           1.90793682e-04     2.24726482e-05     0.00000000e+00    
           1.86769525e-04     3.17092199e-05     0.00000000e+00    
           1.79969735e-04     3.95684438e-05     0.00000000e+00    
           1.60014897e-04     4.96274370e-05     0.00000000e+00    
           1.48193008e-04     5.08217636e-05     0.00000000e+00    
           1.36150236e-04     5.04308191e-05     0.00000000e+00    
           1.25023987e-04     4.79255650e-05     0.00000000e+00    
           3.47236055e-04    -3.62324899e-05     0.00000000e+00    
           3.55499680e-04    -3.36091762e-05     0.00000000e+00    
           3.62795225e-04    -2.97020906e-05     0.00000000e+00    
           3.69271642e-04    -2.43569357e-05     0.00000000e+00    
           3.74110212e-04    -1.80952520e-05     0.00000000e+00    
           3.76394688e-04    -1.09697312e-05     0.00000000e+00    
           3.75847972e-04    -3.09128609e-06     0.00000000e+00    
           3.72147508e-04     5.27107250e-06     0.00000000e+00    
           3.65858024e-04     1.29705977e-05     0.00000000e+00    
           3.58009420e-04     1.86986945e-05     0.00000000e+00    
           3.48575850e-04     2.23974312e-05     0.00000000e+00    
           3.26525012e-04     2.43035574e-05     0.00000000e+00    
           3.15878511e-04     2.19143294e-05     0.00000000e+00    
           3.06462753e-04     1.72708369e-05     0.00000000e+00    
           2.99158302e-04     1.04106302e-05     0.00000000e+00    
           2.94392288e-04     2.09340783e-06     0.00000000e+00    
           2.92785378e-04    -7.01943600e-06     0.00000000e+00    
           2.94501544e-04    -1.60086220e-05     0.00000000e+00    
           2.99254287e-04    -2.37833938e-05     0.00000000e+00    
           3.06675589e-04    -3.02268927e-05     0.00000000e+00    