<?xml version="1.0"?>
<VTKFile type="UnstructuredGrid" version="0.1">
  <UnstructuredGrid>
    <Piece NumberOfPoints="1034" NumberOfCells="1614">
      <Points>
        <DataArray type="Float32" NumberOfComponents="3">
           5.21582007e-01     5.11657000e-01     0.00000000e+00    
           5.07319987e-01     5.11657000e-01     0.00000000e+00    
           4.65243995e-01     5.17907977e-01     0.00000000e+00    
           4.65243995e-01     5.04921973e-01     0.00000000e+00    
           4.75246996e-01     5.11415005e-01     0.00000000e+00    
           5.33852994e-01     5.04921973e-01     0.00000000e+00    
           5.33852994e-01     5.17907977e-01     0.00000000e+00    
           4.83779997e-01     5.34618974e-01     0.00000000e+00    
           4.68984991e-01     5.34618974e-01     0.00000000e+00    
           4.76381987e-01     5.23841977e-01     0.00000000e+00    
           4.68984991e-01     4.66010004e-01     0.00000000e+00    
           4.83779997e-01     4.66010004e-01     0.00000000e+00    
           4.99920011e-01     5.34618974e-01     0.00000000e+00    
           4.89203990e-01     5.34618974e-01     0.00000000e+00    
           4.94562000e-01     5.22280991e-01     0.00000000e+00    
           4.89203990e-01     4.66010004e-01     0.00000000e+00    
           4.99920011e-01     4.66010004e-01     0.00000000e+00    
           5.32517016e-01     4.74112004e-01     0.00000000e+00    
           5.17961025e-01     4.74112004e-01     0.00000000e+00    
           5.33852994e-01     5.19801974e-01     0.00000000e+00    
           5.33852994e-01     5.29603004e-01     0.00000000e+00    
           5.19536972e-01     5.24702013e-01     0.00000000e+00    
           4.65243995e-01     5.29603004e-01     0.00000000e+00    
           4.65243995e-01     5.19801974e-01     0.00000000e+00    
           4.92487997e-01     5.17117977e-01     0.00000000e+00    
           4.76904988e-01     5.17117977e-01     0.00000000e+00    
           5.17996013e-01     5.27033985e-01     0.00000000e+00    
           5.04473984e-01     5.27033985e-01     0.00000000e+00    
           5.08446991e-01     4.83435005e-01     0.00000000e+00    
           4.94414002e-01     4.83435005e-01     0.00000000e+00    
           4.65243995e-01     4.83101994e-01     0.00000000e+00    
           4.65243995e-01     4.74415004e-01     0.00000000e+00    
           4.78336990e-01     4.78758007e-01     0.00000000e+00    
           5.33852994e-01     4.74415004e-01     0.00000000e+00    
           5.33852994e-01     4.83101994e-01     0.00000000e+00    
           4.80668008e-01     4.95810986e-01     0.00000000e+00    
           4.66084987e-01     4.95810986e-01     0.00000000e+00    
           4.93930012e-01     4.79214013e-01     0.00000000e+00    
           4.78967011e-01     4.79214013e-01     0.00000000e+00    
           5.09284973e-01     4.97658014e-01     0.00000000e+00    
           4.95503992e-01     4.97658014e-01     0.00000000e+00    
           5.33011973e-01     5.01751006e-01     0.00000000e+00    
           5.17829001e-01     5.01751006e-01     0.00000000e+00    
           4.95451003e-01     5.00564992e-01     0.00000000e+00    
           4.80922014e-01     5.00564992e-01     0.00000000e+00    
           5.25367022e-01     4.88312006e-01     0.00000000e+00    
           5.09521008e-01     4.88312006e-01     0.00000000e+00    
           4.65243995e-01     5.34618974e-01     0.00000000e+00    
           4.65243995e-01     4.66010004e-01     0.00000000e+00    
           5.33852994e-01     4.66010004e-01     0.00000000e+00    
           5.33852994e-01     5.34618974e-01     0.00000000e+00    
           5.21338999e-01     5.13502657e-01     0.00000000e+00    
           5.20626605e-01     5.15222490e-01     0.00000000e+00    
           5.19493401e-01     5.16699374e-01     0.00000000e+00    
           5.18016517e-01     5.17832637e-01     0.00000000e+00    
           5.16296625e-01     5.18545032e-01     0.00000000e+00    
           5.14451027e-01     5.18787980e-01     0.00000000e+00    
           5.12605369e-01     5.18545032e-01     0.00000000e+00    
           5.10885477e-01     5.17832637e-01     0.00000000e+00    
           5.09408593e-01     5.16699374e-01     0.00000000e+00    
           5.08275390e-01     5.15222490e-01     0.00000000e+00    
           5.07562995e-01     5.13502657e-01     0.00000000e+00    
           5.07562995e-01     5.09811342e-01     0.00000000e+00    
           5.08275390e-01     5.08091509e-01     0.00000000e+00    
           5.09408593e-01     5.06614625e-01     0.00000000e+00    
           5.10885477e-01     5.05481362e-01     0.00000000e+00    
           5.12605369e-01     5.04768968e-01     0.00000000e+00    
           5.14451027e-01     5.04526019e-01     0.00000000e+00    
           5.16296625e-01     5.04768968e-01     0.00000000e+00    
           5.18016517e-01     5.05481362e-01     0.00000000e+00    
           5.19493401e-01     5.06614625e-01     0.00000000e+00    
           5.20626605e-01     5.08091509e-01     0.00000000e+00    
           5.21338999e-01     5.09811342e-01     0.00000000e+00    
           4.66931671e-01     5.04409373e-01     0.00000000e+00    
           4.68693614e-01     5.04328012e-01     0.00000000e+00    
           4.70421344e-01     5.04682958e-01     0.00000000e+00    
           4.72008497e-01     5.05452335e-01     0.00000000e+00    
           4.73357379e-01     5.06588817e-01     0.00000000e+00    
           4.74384934e-01     5.08022368e-01     0.00000000e+00    
           4.75027919e-01     5.09664834e-01     0.00000000e+00    
           4.75028187e-01     5.13165236e-01     0.00000000e+00    
           4.74385172e-01     5.14807761e-01     0.00000000e+00    
           4.73357558e-01     5.16241372e-01     0.00000000e+00    
           4.72008646e-01     5.17377913e-01     0.00000000e+00    
           4.70421433e-01     5.18147290e-01     0.00000000e+00    
           4.68693614e-01     5.18502235e-01     0.00000000e+00    
           4.66931641e-01     5.18420875e-01     0.00000000e+00    
           5.32303810e-01     5.16964078e-01     0.00000000e+00    
           5.31043947e-01     5.15658796e-01     0.00000000e+00    
           5.30155540e-01     5.14077127e-01     0.00000000e+00    
           5.29696345e-01     5.12322068e-01     0.00000000e+00    
           5.29696345e-01     5.10507941e-01     0.00000000e+00    
           5.30155540e-01     5.08752882e-01     0.00000000e+00    
           5.31043947e-01     5.07171214e-01     0.00000000e+00    
           5.32303810e-01     5.05865932e-01     0.00000000e+00    
           4.68517244e-01     5.32760799e-01     0.00000000e+00    
           4.68509018e-01     5.30844629e-01     0.00000000e+00    
           4.68960851e-01     5.28982460e-01     0.00000000e+00    
           4.69846308e-01     5.27283132e-01     0.00000000e+00    
           4.71113682e-01     5.25845945e-01     0.00000000e+00    
           4.72688884e-01     5.24754822e-01     0.00000000e+00    
           4.74479854e-01     5.24073541e-01     0.00000000e+00    
           4.78284091e-01     5.24073601e-01     0.00000000e+00    
           4.80075032e-01     5.24754822e-01     0.00000000e+00    
           4.81650203e-01     5.25845885e-01     0.00000000e+00    
           4.82917547e-01     5.27283013e-01     0.00000000e+00    
           4.83803004e-01     5.28982282e-01     0.00000000e+00    
           4.84254897e-01     5.30844331e-01     0.00000000e+00    
           4.84246761e-01     5.32760441e-01     0.00000000e+00    
           4.82887864e-01     4.67691004e-01     0.00000000e+00    
           4.81620818e-01     4.69110936e-01     0.00000000e+00    
           4.80051905e-01     4.70188022e-01     0.00000000e+00    
           4.78271484e-01     4.70860153e-01     0.00000000e+00    
           4.76382166e-01     4.71088618e-01     0.00000000e+00    
           4.74492878e-01     4.70860243e-01     0.00000000e+00    
           4.72712427e-01     4.70188200e-01     0.00000000e+00    
           4.71143454e-01     4.69111174e-01     0.00000000e+00    
           4.69876349e-01     4.67691302e-01     0.00000000e+00    
           4.88103986e-01     5.33086061e-01     0.00000000e+00    
           4.87431526e-01     5.31323195e-01     0.00000000e+00    
           4.87231195e-01     5.29447019e-01     0.00000000e+00    
           4.87516224e-01     5.27581930e-01     0.00000000e+00    
           4.88267750e-01     5.25851250e-01     0.00000000e+00    
           4.89436030e-01     5.24369657e-01     0.00000000e+00    
           4.90943670e-01     5.23235261e-01     0.00000000e+00    
           4.92690891e-01     5.22523046e-01     0.00000000e+00    
           4.96432930e-01     5.22523701e-01     0.00000000e+00    
           4.98180002e-01     5.23235798e-01     0.00000000e+00    
           4.99687493e-01     5.24370134e-01     0.00000000e+00    
           5.00855684e-01     5.25851607e-01     0.00000000e+00    
           5.01607120e-01     5.27582109e-01     0.00000000e+00    
           5.01892149e-01     5.29447079e-01     0.00000000e+00    
           5.01691818e-01     5.31323016e-01     0.00000000e+00    
           5.01019418e-01     5.33085763e-01     0.00000000e+00    
           4.98371124e-01     4.67269689e-01     0.00000000e+00    
           4.96539861e-01     4.68064904e-01     0.00000000e+00    
           4.94562000e-01     4.68336672e-01     0.00000000e+00    
           4.92584139e-01     4.68064904e-01     0.00000000e+00    
           4.90752876e-01     4.67269689e-01     0.00000000e+00    
           5.32269001e-01     4.75995690e-01     0.00000000e+00    
           5.31541944e-01     4.77750987e-01     0.00000000e+00    
           5.30385315e-01     4.79258329e-01     0.00000000e+00    
           5.28877974e-01     4.80414927e-01     0.00000000e+00    
[...]
      <PointData>
        <DataArray type="Float32" Name="Displacement" NumberOfComponents="3">
           9.77121745e-05     2.83524400e-06     0.00000000e+00    
           9.76130686e-05     1.67467697e-05     0.00000000e+00    
           1.07392909e-04    -1.18314460e-06     0.00000000e+00    
           9.00536179e-05    -1.04169101e-06     0.00000000e+00    
           9.90664339e-05    -8.82976474e-06     0.00000000e+00    
           9.00536179e-05    -1.04169101e-06     0.00000000e+00    
           1.07392909e-04    -1.18314460e-06     0.00000000e+00    
           1.47039784e-04    -9.19780359e-06     0.00000000e+00    
           1.47250263e-04     1.07000942e-05     0.00000000e+00    
           1.28833533e-04     1.29040166e-06     0.00000000e+00    
          -2.74974104e-06     1.07000942e-05     0.00000000e+00    
          -2.96022267e-06    -9.19780359e-06     0.00000000e+00    
           1.38855365e-04    -9.14162683e-06     0.00000000e+00    
           1.39692405e-04    -2.56809699e-06     0.00000000e+00    
           1.27497464e-04    -6.78117658e-06     0.00000000e+00    
          -1.03075990e-05    -2.56809699e-06     0.00000000e+00    
          -1.11446425e-05    -9.14162683e-06     0.00000000e+00    
           2.53296203e-05    -1.65575693e-06     0.00000000e+00    
           2.46194486e-05     1.43350035e-05     0.00000000e+00    
           1.18362754e-04    -2.79764640e-06     0.00000000e+00    
           1.34595379e-04    -2.97776842e-06     0.00000000e+00    
           1.26760016e-04     1.47259270e-05     0.00000000e+00    
           1.34595379e-04    -2.97776842e-06     0.00000000e+00    
           1.18362754e-04    -2.79764640e-06     0.00000000e+00    
           1.12064336e-04    -1.22298570e-05     0.00000000e+00    
           1.10854809e-04     6.73161139e-06     0.00000000e+00    
           1.30766275e-04     6.25532493e-06     0.00000000e+00    
           1.31178676e-04     1.30447515e-05     0.00000000e+00    
           4.63813049e-05    -1.56016563e-06     0.00000000e+00    
           4.43352983e-05     5.76097000e-06     0.00000000e+00    
           3.59983605e-05     8.09028734e-06     0.00000000e+00    
           2.56398962e-05     7.64751985e-06     0.00000000e+00    
           3.18604871e-05    -3.49242760e-06     0.00000000e+00    
           2.56398962e-05     7.64751985e-06     0.00000000e+00    
           3.59983605e-05     8.09028734e-06     0.00000000e+00    
           7.12159235e-05    -7.84592339e-06     0.00000000e+00    
           7.11393659e-05     4.74726676e-06     0.00000000e+00    
           3.61858292e-05    -6.21073877e-06     0.00000000e+00    
           3.38577120e-05     2.24648829e-06     0.00000000e+00    
           6.96356656e-05    -2.63912227e-07     0.00000000e+00    
           7.10796594e-05     4.37646759e-06     0.00000000e+00    
           8.16691609e-05    -5.43190072e-06     0.00000000e+00    
           8.18676854e-05     1.13226106e-05     0.00000000e+00    
           7.32942717e-05    -3.16857677e-06     0.00000000e+00    
           7.42028205e-05    -7.45743378e-08     0.00000000e+00    
           5.47566306e-05     7.96659720e-07     0.00000000e+00    
           5.43423812e-05     1.69969935e-05     0.00000000e+00    
           1.50000007e-04     0.00000000e+00     0.00000000e+00    
           0.00000000e+00     0.00000000e+00     0.00000000e+00    
           0.00000000e+00     0.00000000e+00     0.00000000e+00    
           1.50000007e-04     0.00000000e+00     0.00000000e+00    
           1.00484605e-04     3.08031304e-06     0.00000000e+00    
           1.02999380e-04     3.92375205e-06     0.00000000e+00    
           1.05083280e-04     5.06288552e-06     0.00000000e+00    
           1.06592750e-04     6.37919675e-06     0.00000000e+00    
           1.07503234e-04     7.90272588e-06     0.00000000e+00    
           1.07884924e-04     9.55489850e-06     0.00000000e+00    
           1.07574619e-04     1.14211671e-05     0.00000000e+00    
           1.06475862e-04     1.33178983e-05     0.00000000e+00    
           1.04713727e-04     1.49353282e-05     0.00000000e+00    
           1.02579877e-04     1.60297423e-05     0.00000000e+00    
           1.00166100e-04     1.66465888e-05     0.00000000e+00    
           9.50689355e-05     1.62840497e-05     0.00000000e+00    
           9.27141955e-05     1.53873862e-05     0.00000000e+00    
           9.07691647e-05     1.41735454e-05     0.00000000e+00    
           8.93756514e-05     1.28346283e-05     0.00000000e+00    
           8.86403068e-05     1.13907363e-05     0.00000000e+00    
           8.85078625e-05     9.94189395e-06     0.00000000e+00    
           8.87682036e-05     8.59177999e-06     0.00000000e+00    
           8.92988319e-05     7.46614796e-06     0.00000000e+00    
           9.01606036e-05     6.43828253e-06     0.00000000e+00    
           9.21274768e-05     4.66760457e-06     0.00000000e+00    
           9.48413581e-05     3.33344656e-06     0.00000000e+00    
           8.97376885e-05    -1.77780544e-06     0.00000000e+00    
           8.96735364e-05    -2.86269892e-06     0.00000000e+00    
           9.00724481e-05    -4.26699944e-06     0.00000000e+00    
           9.10932577e-05    -5.78336449e-06     0.00000000e+00    
           9.26007924e-05    -7.17736748e-06     0.00000000e+00    
           9.45141437e-05    -8.19260549e-06     0.00000000e+00    
           9.67043525e-05    -8.72978580e-06     0.00000000e+00    
           1.01302430e-04    -8.55013423e-06     0.00000000e+00    
           1.03182341e-04    -8.02899467e-06     0.00000000e+00    
           1.04764724e-04    -7.27153338e-06     0.00000000e+00    
           1.05978885e-04    -6.23488586e-06     0.00000000e+00    
           1.06919455e-04    -5.00237365e-06     0.00000000e+00    
           1.07510736e-04    -3.73643275e-06     0.00000000e+00    
           1.07646760e-04    -2.46180525e-06     0.00000000e+00    
           1.06332533e-04     4.17789181e-07     0.00000000e+00    
           1.04366460e-04     1.95500138e-06     0.00000000e+00    
           1.01906124e-04     3.08639687e-06     0.00000000e+00    
           9.92801142e-05     3.52791903e-06     0.00000000e+00    
           9.65632935e-05     3.28138822e-06     0.00000000e+00    
           9.39344391e-05     2.33973901e-06     0.00000000e+00    
           9.15674245e-05     7.33229001e-07     0.00000000e+00    
           9.05220513e-05    -4.13541898e-07     0.00000000e+00    
           1.43689729e-04     1.11676381e-05     0.00000000e+00    
           1.40161486e-04     1.09587500e-05     0.00000000e+00    
           1.36944145e-04     1.02103086e-05     0.00000000e+00    
           1.34244750e-04     9.03377622e-06     0.00000000e+00    
           1.32098648e-04     7.40545102e-06     0.00000000e+00    
           1.30426473e-04     5.45136163e-06     0.00000000e+00    
           1.29293447e-04     3.35713980e-06     0.00000000e+00    
           1.28918793e-04    -7.05195873e-07     0.00000000e+00    
           1.29778215e-04    -2.86622480e-06     0.00000000e+00    
           1.31604655e-04    -5.26456233e-06     0.00000000e+00    
           1.34197035e-04    -7.49582614e-06     0.00000000e+00    
           1.37149793e-04    -9.05953675e-06     0.00000000e+00    
           1.40282515e-04    -9.82133133e-06     0.00000000e+00    
           1.43619633e-04    -9.85736642e-06     0.00000000e+00    
           2.89370178e-07    -7.85765951e-06     0.00000000e+00    
           3.06507582e-06    -6.01047486e-06     0.00000000e+00    
           5.13077566e-06    -3.91863659e-06     0.00000000e+00    
           6.40409553e-06    -1.84284784e-06     0.00000000e+00    
           6.88146110e-06     3.40361026e-07     0.00000000e+00    
           6.72178157e-06     2.53516305e-06     0.00000000e+00    
           5.46783303e-06     5.11156259e-06     0.00000000e+00    
           3.28205647e-06     7.57583348e-06     0.00000000e+00    
           4.55394144e-07     9.49228524e-06     0.00000000e+00    
           1.38243326e-04    -1.82619351e-06     0.00000000e+00    
           1.36565126e-04    -1.43758325e-06     0.00000000e+00    
           1.34669579e-04    -1.40736472e-06     0.00000000e+00    
           1.32594825e-04    -1.76019535e-06     0.00000000e+00    
           1.30386412e-04    -2.67035057e-06     0.00000000e+00    
           1.28556843e-04    -4.04712137e-06     0.00000000e+00    
           1.27571577e-04    -5.26942631e-06     0.00000000e+00    
           1.27319421e-04    -6.07691936e-06     0.00000000e+00    
           1.27939638e-04    -7.53826362e-06     0.00000000e+00    
           1.28683547e-04    -8.25822190e-06     0.00000000e+00    
           1.29731867e-04    -8.85649297e-06     0.00000000e+00    
           1.30961256e-04    -9.32345483e-06     0.00000000e+00    
           1.32283414e-04    -9.58165765e-06     0.00000000e+00    
           1.33771420e-04    -9.74514660e-06     0.00000000e+00    
           1.35405586e-04    -9.81231824e-06     0.00000000e+00    
           1.37182098e-04    -9.64310584e-06     0.00000000e+00    
          -9.69156645e-06    -8.28540942e-06     0.00000000e+00    
          -8.64584581e-06    -7.21823653e-06     0.00000000e+00    
          -8.13029419e-06    -6.07183483e-06     0.00000000e+00    
          -8.26979431e-06    -4.83463418e-06     0.00000000e+00    
          -9.04350418e-06    -3.63295771e-06     0.00000000e+00    
           2.79660981e-05    -1.10948531e-06     0.00000000e+00    
           3.00728425e-05    -4.09456135e-07     0.00000000e+00    
           3.18596976e-05     3.07447408e-07     0.00000000e+00    
           3.34652541e-05     1.49722780e-06     0.00000000e+00    
           3.47163732e-05     3.05463823e-06     0.00000000e+00    
           3.54519980e-05     4.82751420e-06     0.00000000e+00    
           3.56337332e-05     6.72852275e-06     0.00000000e+00    
           3.48708636e-05     8.79623894e-06     0.00000000e+00    
           3.30492403e-05     1.10014971e-05     0.00000000e+00    
           3.05110898e-05     1.28452084e-05     0.00000000e+00    
           2.76306491e-05     1.39749200e-05     0.00000000e+00    
           2.16469998e-05     1.40754546e-05     0.00000000e+00    
           1.88862723e-05     1.32259474e-05     0.00000000e+00    
           1.65476704e-05     1.18995176e-05     0.00000000e+00    
           1.48018353e-05     1.01800179e-05     0.00000000e+00    
           1.37558236e-05     8.17652653e-06     0.00000000e+00    
           1.34267766e-05     5.97527742e-06     0.00000000e+00    
           1.38932010e-05     3.65583719e-06     0.00000000e+00    
           1.52048642e-05     1.49033986e-06     0.00000000e+00    
           1.71190004e-05    -2.07386947e-07     0.00000000e+00    
           1.95707798e-05    -1.33185995e-06     0.00000000e+00    
           2.24150099e-05    -1.85342287e-06     0.00000000e+00    
           1.36615738e-04    -1.44332773e-06     0.00000000e+00    
           1.38151780e-04     5.15878924e-07     0.00000000e+00    
           1.39143012e-04     2.83452187e-06     0.00000000e+00    
           1.39303127e-04     5.44214481e-06     0.00000000e+00    
           1.38492498e-04     8.15350086e-06     0.00000000e+00    
           1.36901232e-04     1.05806866e-05     0.00000000e+00    
           1.34733753e-04     1.24859316e-05     0.00000000e+00    
           1.32252317e-04     1.38157857e-05     0.00000000e+00    
           1.29613851e-04     1.45335407e-05     0.00000000e+00    
           1.23661768e-04     1.43604857e-05     0.00000000e+00    
           1.20562254e-04     1.33610556e-05     0.00000000e+00    
           1.17847121e-04     1.18485887e-05     0.00000000e+00    
           1.15802461e-04     1.00099960e-05     0.00000000e+00    
           1.14555951e-04     7.92223091e-06     0.00000000e+00    
           1.13921589e-04     5.73352781e-06     0.00000000e+00    
           1.13862247e-04     3.50725099e-06     0.00000000e+00    
           1.14366019e-04     1.39137649e-06     0.00000000e+00    
           1.15806200e-04    -7.48899993e-07     0.00000000e+00    
           1.21123856e-04    -4.20226888e-06     0.00000000e+00    
           1.24101527e-04    -4.94595861e-06     0.00000000e+00    
           1.27099149e-04    -5.07015602e-06     0.00000000e+00    
           1.29927968e-04    -4.66032907e-06     0.00000000e+00    
           1.32442088e-04    -3.91782214e-06     0.00000000e+00    
           1.15251321e-04    -1.17758445e-05     0.00000000e+00    
           1.18343873e-04    -1.05698009e-05     0.00000000e+00    
           1.21121891e-04    -8.85105419e-06     0.00000000e+00    
           1.22886151e-04    -7.00388955e-06     0.00000000e+00    
           1.23849808e-04    -5.43666692e-06     0.00000000e+00    
           1.24187602e-04    -3.92736729e-06     0.00000000e+00    
           1.24141807e-04    -2.29388934e-06     0.00000000e+00    
           1.23692327e-04    -4.51745819e-07     0.00000000e+00    
           1.22314683e-04     1.63540403e-06     0.00000000e+00    
           1.20018740e-04     3.83493943e-06     0.00000000e+00    
           1.17142677e-04     5.52173879e-06     0.00000000e+00    
           1.14042676e-04     6.45151886e-06     0.00000000e+00    
           1.07874097e-04     6.42018631e-06     0.00000000e+00    
           1.05346684e-04     5.68265978e-06     0.00000000e+00    
           1.03211627e-04     4.74536591e-06     0.00000000e+00    
           1.01384016e-04     3.31222031e-06     0.00000000e+00    
           9.99436961e-05     1.50492394e-06     0.00000000e+00    
           9.89715481e-05    -5.50103380e-07     0.00000000e+00    
           9.87658204e-05    -2.84964972e-06     0.00000000e+00    
           9.95018490e-05    -5.25224505e-06     0.00000000e+00    
           1.01064179e-04    -7.59644672e-06     0.00000000e+00    
           1.03265316e-04    -9.61451042e-06     0.00000000e+00    
           1.05923995e-04    -1.10890442e-05     0.00000000e+00    
           1.08904052e-04    -1.19817651e-05     0.00000000e+00    
           1.32485948e-04     6.39822110e-06     0.00000000e+00    
           1.34154208e-04     6.86677276e-06     0.00000000e+00    
           1.35538095e-04     7.61996989e-06     0.00000000e+00    
           1.36433315e-04     8.56058068e-06     0.00000000e+00    
           1.36776056e-04     9.56829263e-06     0.00000000e+00    
           1.36597650e-04     1.05718400e-05     0.00000000e+00    
           1.35971291e-04     1.14758386e-05     0.00000000e+00    
           1.35003618e-04     1.21953362e-05     0.00000000e+00    
           1.33792753e-04     1.26919695e-05     0.00000000e+00    
           1.32545058e-04     1.28740367e-05     0.00000000e+00    
           1.29706139e-04     1.31798806e-05     0.00000000e+00    
           1.28152344e-04     1.30856351e-05     0.00000000e+00    
           1.26736355e-04     1.27010771e-05     0.00000000e+00    
           1.25555947e-04     1.21106323e-05     0.00000000e+00    
           1.24795013e-04     1.11640420e-05     0.00000000e+00    
           1.24621918e-04     9.94434868e-06     0.00000000e+00    
           1.25186634e-04     8.56073439e-06     0.00000000e+00    
           1.26334242e-04     7.38756307e-06     0.00000000e+00    
           1.27643856e-04     6.67872246e-06     0.00000000e+00    
           1.29088032e-04     6.36823188e-06     0.00000000e+00    
           4.82216201e-05    -1.31046238e-06     0.00000000e+00    
           4.96740686e-05    -1.25520683e-06     0.00000000e+00    
           5.09595775e-05    -1.05622087e-06     0.00000000e+00    
           5.23238996e-05    -3.61691633e-07     0.00000000e+00    
           5.34664468e-05     9.09781818e-07     0.00000000e+00    
           5.38328932e-05     2.26898260e-06     0.00000000e+00    
           5.31928563e-05     3.48677122e-06     0.00000000e+00    
           5.19635323e-05     4.56607449e-06     0.00000000e+00    
           5.03966003e-05     5.27131760e-06     0.00000000e+00    
           4.85769488e-05     5.74101205e-06     0.00000000e+00    
           4.64813857e-05     5.97149710e-06     0.00000000e+00    
           4.25068902e-05     5.37720416e-06     0.00000000e+00    
           4.12871777e-05     5.01420891e-06     0.00000000e+00    
           4.04916682e-05     4.63508513e-06     0.00000000e+00    
           3.97408803e-05     3.97652639e-06     0.00000000e+00    
           3.91791655e-05     3.10510677e-06     0.00000000e+00    
           3.89286906e-05     2.10928215e-06     0.00000000e+00    
           3.92143666e-05     1.06383811e-06     0.00000000e+00    
           3.99680539e-05     6.50776144e-08     0.00000000e+00    
           4.11760084e-05    -7.42321220e-07     0.00000000e+00    
           4.27187078e-05    -1.34732397e-06     0.00000000e+00    
           4.45166188e-05    -1.62267850e-06     0.00000000e+00    
           2.42313199e-05     7.10140966e-06     0.00000000e+00    
           2.29275738e-05     6.27954932e-06     0.00000000e+00    
           2.19809681e-05     5.11065446e-06     0.00000000e+00    
           2.14619286e-05     3.66260292e-06     0.00000000e+00    
           2.16991521e-05     1.95838129e-06     0.00000000e+00    
           2.30378719e-05    -7.26237133e-08     0.00000000e+00    
           2.50335852e-05    -1.79483970e-06     0.00000000e+00    
           2.73441001e-05    -2.91810443e-06     0.00000000e+00    
           2.96790731e-05    -3.42931207e-06     0.00000000e+00    
           3.37147503e-05    -3.38956170e-06     0.00000000e+00    
           3.53861069e-05    -3.08526546e-06     0.00000000e+00    
           3.70267189e-05    -2.36062601e-06     0.00000000e+00    
           3.84902123e-05    -1.22130166e-06     0.00000000e+00    
           3.96198375e-05     3.57065773e-07     0.00000000e+00    
           4.00612735e-05     2.14884449e-06     0.00000000e+00    
           3.98538032e-05     3.94941026e-06     0.00000000e+00    
           3.90560381e-05     5.63415870e-06     0.00000000e+00    
           3.77322358e-05     7.04156673e-06     0.00000000e+00    
           3.38607788e-05     8.77247112e-06     0.00000000e+00    
           3.15464749e-05     8.83270877e-06     0.00000000e+00    
           2.92675595e-05     8.52589346e-06     0.00000000e+00    
           2.72810576e-05     7.95545202e-06     0.00000000e+00    
           7.31628097e-05    -7.49121818e-06     0.00000000e+00    
           7.48054736e-05    -7.01643921e-06     0.00000000e+00    
           7.62991986e-05    -6.28156386e-06     0.00000000e+00    
           7.76476954e-05    -5.23355766e-06     0.00000000e+00    
           7.86669843e-05    -3.99583541e-06     0.00000000e+00    
           7.91585044e-05    -2.57595775e-06     0.00000000e+00    
           7.90612539e-05    -9.86816644e-07     0.00000000e+00    
           7.82985007e-05     7.26084863e-07     0.00000000e+00    
           7.69837570e-05     2.32081993e-06     0.00000000e+00    
           7.53403438e-05     3.51517178e-06     0.00000000e+00    
           7.33729539e-05     4.29757347e-06     0.00000000e+00    
           6.88152068e-05     4.72314605e-06     0.00000000e+00    
           6.66159322e-05     4.24114614e-06     0.00000000e+00    
           6.46615299e-05     3.29018280e-06     0.00000000e+00    
           6.31286021e-05     1.88396496e-06     0.00000000e+00    
           6.21138533e-05     1.71140371e-07     0.00000000e+00    
           6.17807455e-05    -1.71306033e-06     0.00000000e+00    
           6.21713480e-05    -3.55270413e-06     0.00000000e+00    
           6.31891962e-05    -5.12412180e-06     0.00000000e+00    
           6.47508932e-05    -6.42005489e-06     0.00000000e+00    