<?xml version="1.0"?>
<VTKFile type="UnstructuredGrid" version="0.1">
  <UnstructuredGrid>
    <Piece NumberOfPoints="1034" NumberOfCells="1614">
      <Points>
        <DataArray type="Float32" NumberOfComponents="3">
           5.21582007e-01     5.11657000e-01     0.00000000e+00    
           5.07319987e-01     5.11657000e-01     0.00000000e+00    
           4.65243995e-01     5.17907977e-01     0.00000000e+00    
           4.65243995e-01     5.04921973e-01     0.00000000e+00    
           4.75246996e-01     5.11415005e-01     0.00000000e+00    
           5.33852994e-01     5.04921973e-01     0.00000000e+00    
           5.33852994e-01     5.17907977e-01     0.00000000e+00    
           4.83779997e-01     5.34618974e-01     0.00000000e+00    
           4.68984991e-01     5.34618974e-01     0.00000000e+00    
           4.76381987e-01     5.23841977e-01     0.00000000e+00    
           4.68984991e-01     4.66010004e-01     0.00000000e+00    
           4.83779997e-01     4.66010004e-01     0.00000000e+00    
           4.99920011e-01     5.34618974e-01     0.00000000e+00    
           4.89203990e-01     5.34618974e-01     0.00000000e+00    
           4.94562000e-01     5.22280991e-01     0.00000000e+00    
           4.89203990e-01     4.66010004e-01     0.00000000e+00    
           4.99920011e-01     4.66010004e-01     0.00000000e+00    
           5.32517016e-01     4.74112004e-01     0.00000000e+00    
           5.17961025e-01     4.74112004e-01     0.00000000e+00    
           5.33852994e-01     5.19801974e-01     0.00000000e+00    
           5.33852994e-01     5.29603004e-01     0.00000000e+00    
           5.19536972e-01     5.24702013e-01     0.00000000e+00    
           4.65243995e-01     5.29603004e-01     0.00000000e+00    
           4.65243995e-01     5.19801974e-01     0.00000000e+00    
           4.92487997e-01     5.17117977e-01     0.00000000e+00    
           4.76904988e-01     5.17117977e-01     0.00000000e+00    
           5.17996013e-01     5.27033985e-01     0.00000000e+00    
           5.04473984e-01     5.27033985e-01     0.00000000e+00    
           5.08446991e-01     4.83435005e-01     0.00000000e+00    
           4.94414002e-01     4.83435005e-01     0.00000000e+00    
           4.65243995e-01     4.83101994e-01     0.00000000e+00    
           4.65243995e-01     4.74415004e-01     0.00000000e+00    
           4.78336990e-01     4.78758007e-01     0.00000000e+00    
           5.33852994e-01     4.74415004e-01     0.00000000e+00    
           5.33852994e-01     4.83101994e-01     0.00000000e+00    
           4.80668008e-01     4.95810986e-01     0.00000000e+00    
           4.66084987e-01     4.95810986e-01     0.00000000e+00    
           4.93930012e-01     4.79214013e-01     0.00000000e+00    
           4.78967011e-01     4.79214013e-01     0.00000000e+00    
           5.09284973e-01     4.97658014e-01     0.00000000e+00    
           4.95503992e-01     4.97658014e-01     0.00000000e+00    
           5.33011973e-01     5.01751006e-01     0.00000000e+00    
           5.17829001e-01     5.01751006e-01     0.00000000e+00    
           4.95451003e-01     5.00564992e-01     0.00000000e+00    
           4.80922014e-01     5.00564992e-01     0.00000000e+00    
           5.25367022e-01     4.88312006e-01     0.00000000e+00    
           5.09521008e-01     4.88312006e-01     0.00000000e+00    
           4.65243995e-01     5.34618974e-01     0.00000000e+00    
           4.65243995e-01     4.66010004e-01     0.00000000e+00    
           5.33852994e-01     4.66010004e-01     0.00000000e+00    
           5.33852994e-01     5.34618974e-01     0.00000000e+00    
           5.21338999e-01     5.13502657e-01     0.00000000e+00    
           5.20626605e-01     5.15222490e-01     0.00000000e+00    
           5.19493401e-01     5.16699374e-01     0.00000000e+00    
           5.18016517e-01     5.17832637e-01     0.00000000e+00    
           5.16296625e-01     5.18545032e-01     0.00000000e+00    
           5.14451027e-01     5.18787980e-01     0.00000000e+00    
           5.12605369e-01     5.18545032e-01     0.00000000e+00    
           5.10885477e-01     5.17832637e-01     0.00000000e+00    
           5.09408593e-01     5.16699374e-01     0.00000000e+00    
           5.08275390e-01     5.15222490e-01     0.00000000e+00    
           5.07562995e-01     5.13502657e-01     0.00000000e+00    
           5.07562995e-01     5.09811342e-01     0.00000000e+00    
           5.08275390e-01     5.08091509e-01     0.00000000e+00    
           5.09408593e-01     5.06614625e-01     0.00000000e+00    
           5.10885477e-01     5.05481362e-01     0.00000000e+00    
           5.12605369e-01     5.04768968e-01     0.00000000e+00    
           5.14451027e-01     5.04526019e-01     0.00000000e+00    
           5.16296625e-01     5.04768968e-01     0.00000000e+00    
           5.18016517e-01     5.05481362e-01     0.00000000e+00    
           5.19493401e-01     5.06614625e-01     0.00000000e+00    
           5.20626605e-01     5.08091509e-01     0.00000000e+00    
           5.21338999e-01     5.09811342e-01     0.00000000e+00    
           4.66931671e-01     5.04409373e-01     0.00000000e+00    
           4.68693614e-01     5.04328012e-01     0.00000000e+00    
           4.70421344e-01     5.04682958e-01     0.00000000e+00    
           4.72008497e-01     5.05452335e-01     0.00000000e+00    
           4.73357379e-01     5.06588817e-01     0.00000000e+00    
           4.74384934e-01     5.08022368e-01     0.00000000e+00    
           4.75027919e-01     5.09664834e-01     0.00000000e+00    
           4.75028187e-01     5.13165236e-01     0.00000000e+00    
           4.74385172e-01     5.14807761e-01     0.00000000e+00    
           4.73357558e-01     5.16241372e-01     0.00000000e+00    
           4.72008646e-01     5.17377913e-01     0.00000000e+00    
           4.70421433e-01     5.18147290e-01     0.00000000e+00    
           4.68693614e-01     5.18502235e-01     0.00000000e+00    
           4.66931641e-01     5.18420875e-01     0.00000000e+00    
           5.32303810e-01     5.16964078e-01     0.00000000e+00    
           5.31043947e-01     5.15658796e-01     0.00000000e+00    
           5.30155540e-01     5.14077127e-01     0.00000000e+00    
           5.29696345e-01     5.12322068e-01     0.00000000e+00    
           5.29696345e-01     5.10507941e-01     0.00000000e+00    
           5.30155540e-01     5.08752882e-01     0.00000000e+00    
           5.31043947e-01     5.07171214e-01     0.00000000e+00    
           5.32303810e-01     5.05865932e-01     0.00000000e+00    
           4.68517244e-01     5.32760799e-01     0.00000000e+00    
           4.68509018e-01     5.30844629e-01     0.00000000e+00    
           4.68960851e-01     5.28982460e-01     0.00000000e+00    
           4.69846308e-01     5.27283132e-01     0.00000000e+00    
           4.71113682e-01     5.25845945e-01     0.00000000e+00    
           4.72688884e-01     5.24754822e-01     0.00000000e+00    
           4.74479854e-01     5.24073541e-01     0.00000000e+00    
           4.78284091e-01     5.24073601e-01     0.00000000e+00    
           4.80075032e-01     5.24754822e-01     0.00000000e+00    
           4.81650203e-01     5.25845885e-01     0.00000000e+00    
           4.82917547e-01     5.27283013e-01     0.00000000e+00    
           4.83803004e-01     5.28982282e-01     0.00000000e+00    
           4.84254897e-01     5.30844331e-01     0.00000000e+00    
           4.84246761e-01     5.32760441e-01     0.00000000e+00    
           4.82887864e-01     4.67691004e-01     0.00000000e+00    
           4.81620818e-01     4.69110936e-01     0.00000000e+00    
           4.80051905e-01     4.70188022e-01     0.00000000e+00    
           4.78271484e-01     4.70860153e-01     0.00000000e+00    
           4.76382166e-01     4.71088618e-01     0.00000000e+00    
           4.74492878e-01     4.70860243e-01     0.00000000e+00    
           4.72712427e-01     4.70188200e-01     0.00000000e+00    
           4.71143454e-01     4.69111174e-01     0.00000000e+00    
           4.69876349e-01     4.67691302e-01     0.00000000e+00    
           4.88103986e-01     5.33086061e-01     0.00000000e+00    
           4.87431526e-01     5.31323195e-01     0.00000000e+00    
           4.87231195e-01     5.29447019e-01     0.00000000e+00    
           4.87516224e-01     5.27581930e-01     0.00000000e+00    
           4.88267750e-01     5.25851250e-01     0.00000000e+00    
           4.89436030e-01     5.24369657e-01     0.00000000e+00    
           4.90943670e-01     5.23235261e-01     0.00000000e+00    
           4.92690891e-01     5.22523046e-01     0.00000000e+00    
           4.96432930e-01     5.22523701e-01     0.00000000e+00    
           4.98180002e-01     5.23235798e-01     0.00000000e+00    
           4.99687493e-01     5.24370134e-01     0.00000000e+00    
           5.00855684e-01     5.25851607e-01     0.00000000e+00    
           5.01607120e-01     5.27582109e-01     0.00000000e+00    
           5.01892149e-01     5.29447079e-01     0.00000000e+00    
           5.01691818e-01     5.31323016e-01     0.00000000e+00    
           5.01019418e-01     5.33085763e-01     0.00000000e+00    
           4.98371124e-01     4.67269689e-01     0.00000000e+00    
           4.96539861e-01     4.68064904e-01     0.00000000e+00    
           4.94562000e-01     4.68336672e-01     0.00000000e+00    
           4.92584139e-01     4.68064904e-01     0.00000000e+00    
           4.90752876e-01     4.67269689e-01     0.00000000e+00    
           5.32269001e-01     4.75995690e-01     0.00000000e+00    
           5.31541944e-01     4.77750987e-01     0.00000000e+00    
           5.30385315e-01     4.79258329e-01     0.00000000e+00    
           5.28877974e-01     4.80414927e-01     0.00000000e+00    
[...]
      <PointData>
        <DataArray type="Float32" Name="Displacement" NumberOfComponents="3">
           3.94224218e-04     1.21073363e-05     0.00000000e+00    
           3.93926020e-04     6.80874800e-05     0.00000000e+00    
           4.34037152e-04    -2.09138329e-06     0.00000000e+00    
           3.63846484e-04    -7.39807490e-07     0.00000000e+00    
           3.99922981e-04    -3.49877810e-05     0.00000000e+00    
           3.63846484e-04    -7.39807490e-07     0.00000000e+00    
           4.34037152e-04    -2.09138329e-06     0.00000000e+00    
           5.86855051e-04    -3.60816011e-05     0.00000000e+00    
           5.88018564e-04     4.28372041e-05     0.00000000e+00    
           5.15724241e-04     5.44033037e-06     0.00000000e+00    
          -1.19814322e-05     4.28372041e-05     0.00000000e+00    
          -1.31449679e-05    -3.60816011e-05     0.00000000e+00    
           5.56040206e-04    -3.40224760e-05     0.00000000e+00    
           5.59083826e-04    -1.00888474e-05     0.00000000e+00    
           5.13960898e-04    -2.53017497e-05     0.00000000e+00    
          -4.09161657e-05    -1.00888474e-05     0.00000000e+00    
          -4.39598080e-05    -3.40224760e-05     0.00000000e+00    
           1.00010446e-04    -1.02284293e-05     0.00000000e+00    
           9.77801465e-05     5.92151337e-05     0.00000000e+00    
           4.75120090e-04    -1.01047790e-05     0.00000000e+00    
           5.38952125e-04    -1.14036884e-05     0.00000000e+00    
           5.08165045e-04     5.93400910e-05     0.00000000e+00    
           5.38952125e-04    -1.14036884e-05     0.00000000e+00    
           4.75120090e-04    -1.01047790e-05     0.00000000e+00    
           4.50327352e-04    -4.95802124e-05     0.00000000e+00    
           4.46237187e-04     2.75565635e-05     0.00000000e+00    
           5.23960683e-04     2.60735997e-05     0.00000000e+00    
           5.25702431e-04     5.31434707e-05     0.00000000e+00    
           1.83004231e-04    -7.25372547e-06     0.00000000e+00    
           1.76814836e-04     2.44995372e-05     0.00000000e+00    
           1.45646904e-04     3.72198519e-05     0.00000000e+00    
           9.97447278e-05     3.60580743e-05     0.00000000e+00    
           1.26440485e-04    -1.61507014e-05     0.00000000e+00    
           9.97447278e-05     3.60580743e-05     0.00000000e+00    
           1.45646904e-04     3.72198519e-05     0.00000000e+00    
           2.88242241e-04    -3.22669184e-05     0.00000000e+00    
           2.88291078e-04     2.04692205e-05     0.00000000e+00    
           1.42249497e-04    -3.13153832e-05     0.00000000e+00    
           1.34759262e-04     9.88598367e-06     0.00000000e+00    
           2.83216970e-04     3.40834504e-06     0.00000000e+00    
           2.88650946e-04     1.47724804e-05     0.00000000e+00    
           3.31437652e-04    -2.00861286e-05     0.00000000e+00    
           3.32434574e-04     4.42921628e-05     0.00000000e+00    
           2.97253369e-04    -1.61806711e-05     0.00000000e+00    
           3.00851185e-04    -3.18149915e-07     0.00000000e+00    
           2.18471745e-04     4.66204983e-06     0.00000000e+00    
           2.17408931e-04     7.28295636e-05     0.00000000e+00    
           6.00000028e-04     0.00000000e+00     0.00000000e+00    
           0.00000000e+00     0.00000000e+00     0.00000000e+00    
           0.00000000e+00     0.00000000e+00     0.00000000e+00    
           6.00000028e-04     0.00000000e+00     0.00000000e+00    
           4.05066821e-04     1.30590361e-05     0.00000000e+00    
           4.14870854e-04     1.62946326e-05     0.00000000e+00    
           4.23058984e-04     2.08193869e-05     0.00000000e+00    
           4.29098989e-04     2.61848018e-05     0.00000000e+00    
           4.32810280e-04     3.24414468e-05     0.00000000e+00    
           4.34377987e-04     3.91569265e-05     0.00000000e+00    
           4.33166540e-04     4.66683632e-05     0.00000000e+00    
           4.28830972e-04     5.42567141e-05     0.00000000e+00    
           4.21872624e-04     6.07239053e-05     0.00000000e+00    
           4.13450674e-04     6.51062219e-05     0.00000000e+00    
           4.03946382e-04     6.75971023e-05     0.00000000e+00    
           3.83963314e-04     6.64258187e-05     0.00000000e+00    
           3.74716241e-04     6.30948343e-05     0.00000000e+00    
           3.67033528e-04     5.83720648e-05     0.00000000e+00    
           3.61429149e-04     5.29295867e-05     0.00000000e+00    
           3.58352117e-04     4.69175829e-05     0.00000000e+00    
           3.57725046e-04     4.08086780e-05     0.00000000e+00    
           3.58767342e-04     3.51217277e-05     0.00000000e+00    
           3.60925886e-04     3.03859015e-05     0.00000000e+00    
           3.64390871e-04     2.61510540e-05     0.00000000e+00    
           3.72173992e-04     1.92288753e-05     0.00000000e+00    
           3.82909202e-04     1.40359898e-05     0.00000000e+00    
           3.62283376e-04    -4.47424054e-06     0.00000000e+00    
           3.61990184e-04    -9.41835242e-06     0.00000000e+00    
           3.63637228e-04    -1.54925674e-05     0.00000000e+00    
           3.67788423e-04    -2.19055437e-05     0.00000000e+00    
           3.73929652e-04    -2.77428062e-05     0.00000000e+00    
           3.81661666e-04    -3.20058243e-05     0.00000000e+00    
           3.90478526e-04    -3.43558931e-05     0.00000000e+00    
           4.09013504e-04    -3.40167098e-05     0.00000000e+00    
           4.16881550e-04    -3.17123086e-05     0.00000000e+00    
           4.23527556e-04    -2.82747278e-05     0.00000000e+00    
           4.28594241e-04    -2.36812793e-05     0.00000000e+00    
           4.32416913e-04    -1.83614738e-05     0.00000000e+00    
           4.34759684e-04    -1.29153450e-05     0.00000000e+00    
           4.35214490e-04    -7.46278010e-06     0.00000000e+00    
           4.29686799e-04     4.48938727e-06     0.00000000e+00    
           4.21756500e-04     1.08096465e-05     0.00000000e+00    
           4.11873247e-04     1.54960417e-05     0.00000000e+00    
           4.01355646e-04     1.74135876e-05     0.00000000e+00    
           3.90610745e-04     1.66048339e-05     0.00000000e+00    
           3.80327401e-04     1.32598343e-05     0.00000000e+00    
           3.71278671e-04     7.78582216e-06     0.00000000e+00    
           3.66426277e-04     2.74507488e-06     0.00000000e+00    
           5.74212812e-04     4.48138526e-05     0.00000000e+00    
           5.60493732e-04     4.42259297e-05     0.00000000e+00    
           5.47807256e-04     4.13766757e-05     0.00000000e+00    
           5.37035929e-04     3.65935157e-05     0.00000000e+00    
           5.28492499e-04     2.99912335e-05     0.00000000e+00    
           5.21911192e-04     2.21176033e-05     0.00000000e+00    
           5.17497130e-04     1.37313982e-05     0.00000000e+00    
           5.16131171e-04    -2.55013515e-06     0.00000000e+00    
           5.19581139e-04    -1.11504978e-05     0.00000000e+00    
           5.26805699e-04    -2.06273671e-05     0.00000000e+00    
           5.37017244e-04    -2.93920712e-05     0.00000000e+00    
           5.48589800e-04    -3.55260854e-05     0.00000000e+00    
           5.60783083e-04    -3.84852610e-05     0.00000000e+00    
           5.73698489e-04    -3.86151842e-05     0.00000000e+00    
          -7.00488840e-07    -3.09820934e-05     0.00000000e+00    
           9.93208232e-06    -2.39044657e-05     0.00000000e+00    
           1.79711042e-05    -1.57108861e-05     0.00000000e+00    
           2.31735794e-05    -7.41329086e-06     0.00000000e+00    
           2.52492737e-05     1.44249361e-06     0.00000000e+00    
           2.47277039e-05     1.03057919e-05     0.00000000e+00    
           1.98805701e-05     2.06462046e-05     0.00000000e+00    
           1.14044187e-05     3.04487839e-05     0.00000000e+00    
           4.44139800e-07     3.80316997e-05     0.00000000e+00    
           5.53679129e-04    -7.33678871e-06     0.00000000e+00    
           5.47452597e-04    -5.93520326e-06     0.00000000e+00    
           5.40458539e-04    -5.84969212e-06     0.00000000e+00    
           5.32868842e-04    -7.16713657e-06     0.00000000e+00    
           5.24912903e-04    -1.04139317e-05     0.00000000e+00    
           5.18465880e-04    -1.51377299e-05     0.00000000e+00    
           5.14823536e-04    -1.94785971e-05     0.00000000e+00    
           5.13556937e-04    -2.25476506e-05     0.00000000e+00    
           5.15502819e-04    -2.81617904e-05     0.00000000e+00    
           5.18263667e-04    -3.08115596e-05     0.00000000e+00    
           5.22152055e-04    -3.29762952e-05     0.00000000e+00    
           5.26708842e-04    -3.46666893e-05     0.00000000e+00    
           5.31591708e-04    -3.55799602e-05     0.00000000e+00    
           5.37123880e-04    -3.61797029e-05     0.00000000e+00    
           5.43232600e-04    -3.64162006e-05     0.00000000e+00    
           5.49839227e-04    -3.58281104e-05     0.00000000e+00    
          -3.86052052e-05    -3.09438619e-05     0.00000000e+00    
          -3.47507848e-05    -2.71431236e-05     0.00000000e+00    
          -3.27870548e-05    -2.30753922e-05     0.00000000e+00    
          -3.32794807e-05    -1.85447152e-05     0.00000000e+00    
          -3.61655584e-05    -1.40707925e-05     0.00000000e+00    
           1.11344183e-04    -8.44858005e-06     0.00000000e+00    
           1.20882680e-04    -4.96531356e-06     0.00000000e+00    
           1.28621818e-04    -9.64725245e-07     0.00000000e+00    
           1.35215640e-04     4.57554870e-06     0.00000000e+00    
           1.40262360e-04     1.15228686e-05     0.00000000e+00    
           1.43097815e-04     1.93004180e-05     0.00000000e+00    
           1.43571320e-04     2.75303828e-05     0.00000000e+00    
           1.40221440e-04     3.63015060e-05     0.00000000e+00    
           1.32631569e-04     4.54642286e-05     0.00000000e+00    
           1.22130077e-04     5.30834041e-05     0.00000000e+00    
           1.10218149e-04     5.77467326e-05     0.00000000e+00    
           8.54967730e-05     5.81126878e-05     0.00000000e+00    
           7.40904288e-05     5.45351904e-05     0.00000000e+00    
           6.44037646e-05     4.89111662e-05     0.00000000e+00    
           5.71116871e-05     4.15824834e-05     0.00000000e+00    
           5.26689510e-05     3.30204166e-05     0.00000000e+00    
           5.12043880e-05     2.36632968e-05     0.00000000e+00    
           5.30165053e-05     1.38366750e-05     0.00000000e+00    
           5.83394030e-05     4.58859404e-06     0.00000000e+00    
           6.61964878e-05    -2.74789727e-06     0.00000000e+00    
           7.62619238e-05    -7.73266947e-06     0.00000000e+00    
           8.79432846e-05    -1.03230159e-05     0.00000000e+00    
           5.47046424e-04    -5.12948236e-06     0.00000000e+00    
           5.53139951e-04     2.76562696e-06     0.00000000e+00    
           5.57001855e-04     1.20434806e-05     0.00000000e+00    
           5.57558960e-04     2.24476189e-05     0.00000000e+00    
           5.54311264e-04     3.32557429e-05     0.00000000e+00    
           5.48028795e-04     4.29127322e-05     0.00000000e+00    
           5.39488392e-04     5.04813324e-05     0.00000000e+00    
           5.29725978e-04     5.57463136e-05     0.00000000e+00    
           5.19356399e-04     5.85792877e-05     0.00000000e+00    
           4.96056688e-04     5.79556290e-05     0.00000000e+00    
           4.83989163e-04     5.41553854e-05     0.00000000e+00    
           4.73376043e-04     4.82647374e-05     0.00000000e+00    
           4.65276564e-04     4.09355525e-05     0.00000000e+00    
           4.60220705e-04     3.25340225e-05     0.00000000e+00    
           4.57650312e-04     2.37579807e-05     0.00000000e+00    
           4.57420363e-04     1.49270481e-05     0.00000000e+00    
           4.59462201e-04     6.61429294e-06     0.00000000e+00    
           4.65129822e-04    -1.89582158e-06     0.00000000e+00    
           4.85884084e-04    -1.57862723e-05     0.00000000e+00    
           4.97472065e-04    -1.88891208e-05     0.00000000e+00    
           5.09152364e-04    -1.96047768e-05     0.00000000e+00    
           5.20259724e-04    -1.82206968e-05     0.00000000e+00    
           5.30279998e-04    -1.53279325e-05     0.00000000e+00    
           4.62876196e-04    -4.78379552e-05     0.00000000e+00    
           4.74889908e-04    -4.32474008e-05     0.00000000e+00    
           4.85645985e-04    -3.67575922e-05     0.00000000e+00    
           4.92787629e-04    -2.94335605e-05     0.00000000e+00    
           4.97031258e-04    -2.27429828e-05     0.00000000e+00    
           4.98705194e-04    -1.62199631e-05     0.00000000e+00    
           4.98562644e-04    -9.36947254e-06     0.00000000e+00    
           4.96744586e-04    -1.80836435e-06     0.00000000e+00    
           4.91299201e-04     6.65042126e-06     0.00000000e+00    
           4.82256291e-04     1.54773679e-05     0.00000000e+00    
           4.70969302e-04     2.23151419e-05     0.00000000e+00    
           4.58800496e-04     2.62071226e-05     0.00000000e+00    
           4.34345711e-04     2.64514601e-05     0.00000000e+00    
           4.23980033e-04     2.33621467e-05     0.00000000e+00    
           4.15156712e-04     1.91477702e-05     0.00000000e+00    
           4.07787098e-04     1.30906928e-05     0.00000000e+00    
           4.02059202e-04     5.59903992e-06     0.00000000e+00    
           3.98277451e-04    -2.82604037e-06     0.00000000e+00    
           3.97551688e-04    -1.21655485e-05     0.00000000e+00    
           4.00533463e-04    -2.18466848e-05     0.00000000e+00    
           4.06743435e-04    -3.12151169e-05     0.00000000e+00    
           4.15486516e-04    -3.92414840e-05     0.00000000e+00    
           4.26044659e-04    -4.50868865e-05     0.00000000e+00    
           4.37846233e-04    -4.86001918e-05     0.00000000e+00    
           5.30662714e-04     2.66249590e-05     0.00000000e+00    
           5.37134358e-04     2.84245361e-05     0.00000000e+00    
           5.42495516e-04     3.13391211e-05     0.00000000e+00    
           5.46025869e-04     3.50270202e-05     0.00000000e+00    
           5.47476404e-04     3.90356327e-05     0.00000000e+00    
           5.46902535e-04     4.30790569e-05     0.00000000e+00    
           5.44498151e-04     4.67530335e-05     0.00000000e+00    
           5.40716283e-04     4.96800385e-05     0.00000000e+00    
           5.35985106e-04     5.17083427e-05     0.00000000e+00    
           5.31094265e-04     5.24746756e-05     0.00000000e+00    
           5.19835448e-04     5.35657127e-05     0.00000000e+00    
           5.13715902e-04     5.31102523e-05     0.00000000e+00    
           5.08154859e-04     5.15285137e-05     0.00000000e+00    
           5.03527583e-04     4.91496430e-05     0.00000000e+00    
           5.00591355e-04     4.54060573e-05     0.00000000e+00    
           4.99955087e-04     4.05723258e-05     0.00000000e+00    
           5.02186129e-04     3.51130875e-05     0.00000000e+00    
           5.06677025e-04     3.04880832e-05     0.00000000e+00    
           5.11787308e-04     2.77036070e-05     0.00000000e+00    
           5.17409411e-04     2.65088293e-05     0.00000000e+00    
           1.90312043e-04    -6.58359932e-06     0.00000000e+00    
           1.96428926e-04    -5.86626084e-06     0.00000000e+00    
           2.01618343e-04    -4.23353822e-06     0.00000000e+00    
           2.06605459e-04    -8.25419477e-07     0.00000000e+00    
           2.09932608e-04     4.16762214e-06     0.00000000e+00    
           2.10807731e-04     8.95521589e-06     0.00000000e+00    
           2.09406891e-04     1.35293376e-05     0.00000000e+00    
           2.05449222e-04     1.81318646e-05     0.00000000e+00    
           1.99625152e-04     2.12215964e-05     0.00000000e+00    
           1.92782405e-04     2.33620249e-05     0.00000000e+00    
           1.84899109e-04     2.46731106e-05     0.00000000e+00    
           1.69550462e-04     2.34196450e-05     0.00000000e+00    
           1.64087047e-04     2.16940152e-05     0.00000000e+00    
           1.60275158e-04     1.95456269e-05     0.00000000e+00    
           1.57097413e-04     1.65091005e-05     0.00000000e+00    
           1.54828507e-04     1.27688209e-05     0.00000000e+00    
           1.53854155e-04     8.60010459e-06     0.00000000e+00    
           1.54983834e-04     4.24136897e-06     0.00000000e+00    
           1.57971284e-04     1.13035412e-07     0.00000000e+00    
           1.62745680e-04    -3.23036738e-06     0.00000000e+00    
           1.68775150e-04    -5.76789671e-06     0.00000000e+00    
           1.75739129e-04    -7.09725919e-06     0.00000000e+00    
           9.34453565e-05     3.27494527e-05     0.00000000e+00    
           8.79065919e-05     2.84075159e-05     0.00000000e+00    
           8.39847344e-05     2.26946813e-05     0.00000000e+00    
           8.20000059e-05     1.59171923e-05     0.00000000e+00    
           8.31557045e-05     8.25239840e-06     0.00000000e+00    
           8.88541617e-05    -5.99398504e-07     0.00000000e+00    
           9.72812268e-05    -8.11891368e-06     0.00000000e+00    
           1.07017906e-04    -1.31011611e-05     0.00000000e+00    
           1.16943411e-04    -1.56045680e-05     0.00000000e+00    
           1.34941642e-04    -1.54809095e-05     0.00000000e+00    
           1.42579593e-04    -1.37432098e-05     0.00000000e+00    
           1.49888510e-04    -1.02277045e-05     0.00000000e+00    
           1.56299910e-04    -4.91475021e-06     0.00000000e+00    
           1.61130753e-04     2.18732362e-06     0.00000000e+00    
           1.63068704e-04     1.01825917e-05     0.00000000e+00    
           1.62241922e-04     1.82687036e-05     0.00000000e+00    
           1.58847004e-04     2.58825930e-05     0.00000000e+00    
           1.53142508e-04     3.23282911e-05     0.00000000e+00    
           1.36436109e-04     4.04878592e-05     0.00000000e+00    
           1.26531566e-04     4.12891168e-05     0.00000000e+00    
           1.16537158e-04     4.07302614e-05     0.00000000e+00    
           1.07399181e-04     3.85811181e-05     0.00000000e+00    
           2.96377402e-04    -3.08978670e-05     0.00000000e+00    
           3.03355220e-04    -2.87215735e-05     0.00000000e+00    
           3.09545023e-04    -2.54724509e-05     0.00000000e+00    
           3.15070007e-04    -2.09825594e-05     0.00000000e+00    
           3.19207757e-04    -1.57145332e-05     0.00000000e+00    
           3.21171421e-04    -9.70947531e-06     0.00000000e+00    
           3.20723542e-04    -3.04930541e-06     0.00000000e+00    
           3.17582919e-04     4.04912907e-06     0.00000000e+00    
           3.12225224e-04     1.06067700e-05     0.00000000e+00    
           3.05529131e-04     1.54961290e-05     0.00000000e+00    
           2.97481689e-04     1.86679281e-05     0.00000000e+00    
           2.78692256e-04     2.03287873e-05     0.00000000e+00    
           2.69617361e-04     1.83090524e-05     0.00000000e+00    
           2.61579087e-04     1.43682000e-05     0.00000000e+00    
           2.55318912e-04     8.53601341e-06     0.00000000e+00    
           2.51220248e-04     1.45525098e-06     0.00000000e+00    
           2.49849574e-04    -6.31009971e-06     0.00000000e+00    
           2.51353602e-04    -1.39494114e-05     0.00000000e+00    
           2.55446677e-04    -2.05267515e-05     0.00000000e+00    
           2.61803623e-04    -2.59713252e-05     0.00000000e+00    