<?xml version="1.0"?>
<VTKFile type="UnstructuredGrid" version="0.1">
  <UnstructuredGrid>
    <Piece NumberOfPoints="1034" NumberOfCells="1614">
      <Points>
        <DataArray type="Float32" NumberOfComponents="3">
           5.21582007e-01     5.11657000e-01     0.00000000e+00    
           5.07319987e-01     5.11657000e-01     0.00000000e+00    
           4.65243995e-01     5.17907977e-01     0.00000000e+00    
           4.65243995e-01     5.04921973e-01     0.00000000e+00    
           4.75246996e-01     5.11415005e-01     0.00000000e+00    
           5.33852994e-01     5.04921973e-01     0.00000000e+00    
           5.33852994e-01     5.17907977e-01     0.00000000e+00    
           4.83779997e-01     5.34618974e-01     0.00000000e+00    
           4.68984991e-01     5.34618974e-01     0.00000000e+00    
           4.76381987e-01     5.23841977e-01     0.00000000e+00    
           4.68984991e-01     4.66010004e-01     0.00000000e+00    
           4.83779997e-01     4.66010004e-01     0.00000000e+00    
           4.99920011e-01     5.34618974e-01     0.00000000e+00    
           4.89203990e-01     5.34618974e-01     0.00000000e+00    
           4.94562000e-01     5.22280991e-01     0.00000000e+00    
           4.89203990e-01     4.66010004e-01     0.00000000e+00    
           4.99920011e-01     4.66010004e-01     0.00000000e+00    
           5.32517016e-01     4.74112004e-01     0.00000000e+00    
           5.17961025e-01     4.74112004e-01     0.00000000e+00    
           5.33852994e-01     5.19801974e-01     0.00000000e+00    
           5.33852994e-01     5.29603004e-01     0.00000000e+00    
           5.19536972e-01     5.24702013e-01     0.00000000e+00    
           4.65243995e-01     5.29603004e-01     0.00000000e+00    
           4.65243995e-01     5.19801974e-01     0.00000000e+00    
           4.92487997e-01     5.17117977e-01     0.00000000e+00    
           4.76904988e-01     5.17117977e-01     0.00000000e+00    
           5.17996013e-01     5.27033985e-01     0.00000000e+00    
           5.04473984e-01     5.27033985e-01     0.00000000e+00    
           5.08446991e-01     4.83435005e-01     0.00000000e+00    
           4.94414002e-01     4.83435005e-01     0.00000000e+00    
           4.65243995e-01     4.83101994e-01     0.00000000e+00    
           4.65243995e-01     4.74415004e-01     0.00000000e+00    
           4.78336990e-01     4.78758007e-01     0.00000000e+00    
           5.33852994e-01     4.74415004e-01     0.00000000e+00    
           5.33852994e-01     4.83101994e-01     0.00000000e+00    
           4.80668008e-01     4.95810986e-01     0.00000000e+00    
           4.66084987e-01     4.95810986e-01     0.00000000e+00    
           4.93930012e-01     4.79214013e-01     0.00000000e+00    
           4.78967011e-01     4.79214013e-01     0.00000000e+00    
           5.09284973e-01     4.97658014e-01     0.00000000e+00    
           4.95503992e-01     4.97658014e-01     0.00000000e+00    
           5.33011973e-01     5.01751006e-01     0.00000000e+00    
           5.17829001e-01     5.01751006e-01     0.00000000e+00    
           4.95451003e-01     5.00564992e-01     0.00000000e+00    
           4.80922014e-01     5.00564992e-01     0.00000000e+00    
           5.25367022e-01     4.88312006e-01     0.00000000e+00    
           5.09521008e-01     4.88312006e-01     0.00000000e+00    
           4.65243995e-01     5.34618974e-01     0.00000000e+00    
           4.65243995e-01     4.66010004e-01     0.00000000e+00    
           5.33852994e-01     4.66010004e-01     0.00000000e+00    
           5.33852994e-01     5.34618974e-01     0.00000000e+00    
           5.21338999e-01     5.13502657e-01     0.00000000e+00    
           5.20626605e-01     5.15222490e-01     0.00000000e+00    
           5.19493401e-01     5.16699374e-01     0.00000000e+00    
           5.18016517e-01     5.17832637e-01     0.00000000e+00    
           5.16296625e-01     5.18545032e-01     0.00000000e+00    
           5.14451027e-01     5.18787980e-01     0.00000000e+00    
           5.12605369e-01     5.18545032e-01     0.00000000e+00    
           5.10885477e-01     5.17832637e-01     0.00000000e+00    
           5.09408593e-01     5.16699374e-01     0.00000000e+00    
           5.08275390e-01     5.15222490e-01     0.00000000e+00    
           5.07562995e-01     5.13502657e-01     0.00000000e+00    
           5.07562995e-01     5.09811342e-01     0.00000000e+00    
           5.08275390e-01     5.08091509e-01     0.00000000e+00    
           5.09408593e-01     5.06614625e-01     0.00000000e+00    
           5.10885477e-01     5.05481362e-01     0.00000000e+00    
           5.12605369e-01     5.04768968e-01     0.00000000e+00    
           5.14451027e-01     5.04526019e-01     0.00000000e+00    
           5.16296625e-01     5.04768968e-01     0.00000000e+00    
           5.18016517e-01     5.05481362e-01     0.00000000e+00    
           5.19493401e-01     5.06614625e-01     0.00000000e+00    
           5.20626605e-01     5.08091509e-01     0.00000000e+00    
           5.21338999e-01     5.09811342e-01     0.00000000e+00    
           4.66931671e-01     5.04409373e-01     0.00000000e+00    
           4.68693614e-01     5.04328012e-01     0.00000000e+00    
           4.70421344e-01     5.04682958e-01     0.00000000e+00    
           4.72008497e-01     5.05452335e-01     0.00000000e+00    
           4.73357379e-01     5.06588817e-01     0.00000000e+00    
           4.74384934e-01     5.08022368e-01     0.00000000e+00    
           4.75027919e-01     5.09664834e-01     0.00000000e+00    
           4.75028187e-01     5.13165236e-01     0.00000000e+00    
           4.74385172e-01     5.14807761e-01     0.00000000e+00    
           4.73357558e-01     5.16241372e-01     0.00000000e+00    
           4.72008646e-01     5.17377913e-01     0.00000000e+00    
           4.70421433e-01     5.18147290e-01     0.00000000e+00    
           4.68693614e-01     5.18502235e-01     0.00000000e+00    
           4.66931641e-01     5.18420875e-01     0.00000000e+00    
           5.32303810e-01     5.16964078e-01     0.00000000e+00    
           5.31043947e-01     5.15658796e-01     0.00000000e+00    
           5.30155540e-01     5.14077127e-01     0.00000000e+00    
           5.29696345e-01     5.12322068e-01     0.00000000e+00    
           5.29696345e-01     5.10507941e-01     0.00000000e+00    
           5.30155540e-01     5.08752882e-01     0.00000000e+00    
           5.31043947e-01     5.07171214e-01     0.00000000e+00    
           5.32303810e-01     5.05865932e-01     0.00000000e+00    
           4.68517244e-01     5.32760799e-01     0.00000000e+00    
           4.68509018e-01     5.30844629e-01     0.00000000e+00    
           4.68960851e-01     5.28982460e-01     0.00000000e+00    
           4.69846308e-01     5.27283132e-01     0.00000000e+00    
           4.71113682e-01     5.25845945e-01     0.00000000e+00    
           4.72688884e-01     5.24754822e-01     0.00000000e+00    
           4.74479854e-01     5.24073541e-01     0.00000000e+00    
           4.78284091e-01     5.24073601e-01     0.00000000e+00    
           4.80075032e-01     5.24754822e-01     0.00000000e+00    
           4.81650203e-01     5.25845885e-01     0.00000000e+00    
           4.82917547e-01     5.27283013e-01     0.00000000e+00    
           4.83803004e-01     5.28982282e-01     0.00000000e+00    
           4.84254897e-01     5.30844331e-01     0.00000000e+00    
           4.84246761e-01     5.32760441e-01     0.00000000e+00    
           4.82887864e-01     4.67691004e-01     0.00000000e+00    
           4.81620818e-01     4.69110936e-01     0.00000000e+00    
           4.80051905e-01     4.70188022e-01     0.00000000e+00    
           4.78271484e-01     4.70860153e-01     0.00000000e+00    
           4.76382166e-01     4.71088618e-01     0.00000000e+00    
           4.74492878e-01     4.70860243e-01     0.00000000e+00    
           4.72712427e-01     4.70188200e-01     0.00000000e+00    
           4.71143454e-01     4.69111174e-01     0.00000000e+00    
           4.69876349e-01     4.67691302e-01     0.00000000e+00    
           4.88103986e-01     5.33086061e-01     0.00000000e+00    
           4.87431526e-01     5.31323195e-01     0.00000000e+00    
           4.87231195e-01     5.29447019e-01     0.00000000e+00    
           4.87516224e-01     5.27581930e-01     0.00000000e+00    
           4.88267750e-01     5.25851250e-01     0.00000000e+00    
           4.89436030e-01     5.24369657e-01     0.00000000e+00    
           4.90943670e-01     5.23235261e-01     0.00000000e+00    
           4.92690891e-01     5.22523046e-01     0.00000000e+00    
           4.96432930e-01     5.22523701e-01     0.00000000e+00    
           4.98180002e-01     5.23235798e-01     0.00000000e+00    
           4.99687493e-01     5.24370134e-01     0.00000000e+00    
           5.00855684e-01     5.25851607e-01     0.00000000e+00    
           5.01607120e-01     5.27582109e-01     0.00000000e+00    
           5.01892149e-01     5.29447079e-01     0.00000000e+00    
           5.01691818e-01     5.31323016e-01     0.00000000e+00    
           5.01019418e-01     5.33085763e-01     0.00000000e+00    
           4.98371124e-01     4.67269689e-01     0.00000000e+00    
           4.96539861e-01     4.68064904e-01     0.00000000e+00    
           4.94562000e-01     4.68336672e-01     0.00000000e+00    
           4.92584139e-01     4.68064904e-01     0.00000000e+00    
           4.90752876e-01     4.67269689e-01     0.00000000e+00    
           5.32269001e-01     4.75995690e-01     0.00000000e+00    
           5.31541944e-01     4.77750987e-01     0.00000000e+00    
           5.30385315e-01     4.79258329e-01     0.00000000e+00    
           5.28877974e-01     4.80414927e-01     0.00000000e+00    
[...]
      <PointData>
        <DataArray type="Float32" Name="Displacement" NumberOfComponents="3">
           1.30496512e-03     1.29599037e-04     0.00000000e+00    
           1.30450330e-03     2.95554346e-04     0.00000000e+00    
           1.43635424e-03     4.20484685e-05     0.00000000e+00    
           1.22391165e-03     5.04270029e-05     0.00000000e+00    
           1.33212924e-03    -8.02473223e-05     0.00000000e+00    
           1.22391165e-03     5.04270029e-05     0.00000000e+00    
           1.43635424e-03     4.20484685e-05     0.00000000e+00    
           1.82951137e-03    -1.06385291e-04     0.00000000e+00    
           1.83580176e-03     1.35196926e-04     0.00000000e+00    
           1.63021614e-03     1.76038520e-05     0.00000000e+00    
          -6.41982624e-05     1.35196926e-04     0.00000000e+00    
          -7.04886552e-05    -1.06385291e-04     0.00000000e+00    
           1.74678431e-03    -9.83896243e-05     0.00000000e+00    
           1.75273069e-03    -5.03073534e-05     0.00000000e+00    
           1.66098482e-03    -7.85501034e-05     0.00000000e+00    
          -1.47269340e-04    -5.03073534e-05     0.00000000e+00    
          -1.53215718e-04    -9.83896243e-05     0.00000000e+00    
           3.73129442e-04    -6.04316592e-05     0.00000000e+00    
           3.70297144e-04     2.69766315e-04     0.00000000e+00    
           1.52285537e-03     9.49205332e-06     0.00000000e+00    
           1.70972478e-03     1.29017212e-06     0.00000000e+00    
           1.61862012e-03     2.35486310e-04     0.00000000e+00    
           1.70972478e-03     1.29017212e-06     0.00000000e+00    
           1.52285537e-03     9.49205332e-06     0.00000000e+00    
           1.46302476e-03    -1.67453298e-04     0.00000000e+00    
           1.45703100e-03     5.85342896e-05     0.00000000e+00    
           1.66526984e-03     1.65774865e-04     0.00000000e+00    
           1.66852935e-03     2.70576129e-04     0.00000000e+00    
           6.32656796e-04    -6.67815766e-06     0.00000000e+00    
           6.27384812e-04     9.89717082e-05     0.00000000e+00    
           5.69892814e-04     1.78088332e-04     0.00000000e+00    
           3.76550597e-04     1.80874398e-04     0.00000000e+00    
           4.80419170e-04    -7.85714947e-05     0.00000000e+00    
           3.76550597e-04     1.80874398e-04     0.00000000e+00    
           5.69892814e-04     1.78088332e-04     0.00000000e+00    
           1.00402464e-03    -1.05003135e-04     0.00000000e+00    
           1.00437168e-03     9.00702435e-05     0.00000000e+00    
           5.20762580e-04    -1.68131286e-04     0.00000000e+00    
           5.11555292e-04     2.42936585e-05     0.00000000e+00    
           1.01313670e-03     7.07828003e-05     0.00000000e+00    
           1.02158671e-03     5.17113258e-05     0.00000000e+00    
           1.13080745e-03    -2.18847822e-06     0.00000000e+00    
           1.13486766e-03     2.11324790e-04     0.00000000e+00    
           1.04448188e-03    -1.00871832e-04     0.00000000e+00    
           1.05167541e-03    -2.07545982e-05     0.00000000e+00    
           7.71613617e-04     7.52747947e-05     0.00000000e+00    
           7.69996259e-04     3.77432327e-04     0.00000000e+00    
           1.90000003e-03     0.00000000e+00     0.00000000e+00    
           0.00000000e+00     0.00000000e+00     0.00000000e+00    
           0.00000000e+00     0.00000000e+00     0.00000000e+00    
           1.90000003e-03     0.00000000e+00     0.00000000e+00    
           1.33332517e-03     1.32422021e-04     0.00000000e+00    
           1.35897065e-03     1.41570650e-04     0.00000000e+00    
           1.38036453e-03     1.54949797e-04     0.00000000e+00    
           1.39623578e-03     1.71677893e-04     0.00000000e+00    
           1.40573550e-03     1.91282321e-04     0.00000000e+00    
           1.40915974e-03     2.11839375e-04     0.00000000e+00    
           1.40559906e-03     2.33715589e-04     0.00000000e+00    
           1.39472692e-03     2.54949235e-04     0.00000000e+00    
           1.37680373e-03     2.73160607e-04     0.00000000e+00    
           1.35503593e-03     2.85702583e-04     0.00000000e+00    
           1.33072131e-03     2.93424324e-04     0.00000000e+00    
           1.27816643e-03     2.91783537e-04     0.00000000e+00    
           1.25360128e-03     2.83192174e-04     0.00000000e+00    
           1.23278820e-03     2.70143995e-04     0.00000000e+00    
           1.21693511e-03     2.54416256e-04     0.00000000e+00    
           1.20722456e-03     2.36161533e-04     0.00000000e+00    
           1.20446621e-03     2.16673070e-04     0.00000000e+00    
           1.20701222e-03     1.97578396e-04     0.00000000e+00    
           1.21371413e-03     1.80922216e-04     0.00000000e+00    
           1.22551480e-03     1.65481397e-04     0.00000000e+00    
           1.24724454e-03     1.47302489e-04     0.00000000e+00    
           1.27546291e-03     1.34325499e-04     0.00000000e+00    
           1.21689762e-03     3.19343235e-05     0.00000000e+00    
           1.21543079e-03     1.11233912e-05     0.00000000e+00    
           1.22066250e-03    -1.15241837e-05     0.00000000e+00    
           1.23337330e-03    -3.38866485e-05     0.00000000e+00    
           1.25233585e-03    -5.36963671e-05     0.00000000e+00    
           1.27606851e-03    -6.84816623e-05     0.00000000e+00    
           1.30315858e-03    -7.72319618e-05     0.00000000e+00    
           1.36042060e-03    -7.72268249e-05     0.00000000e+00    
           1.38564990e-03    -6.83520266e-05     0.00000000e+00    
           1.40707544e-03    -5.49408614e-05     0.00000000e+00    
           1.42342027e-03    -3.75899035e-05     0.00000000e+00    
           1.43505388e-03    -1.78927930e-05     0.00000000e+00    
           1.44141167e-03     2.49399545e-06     0.00000000e+00    
           1.44159957e-03     2.27347937e-05     0.00000000e+00    
           1.42244995e-03     6.38114361e-05     0.00000000e+00    
           1.39920949e-03     8.41725050e-05     0.00000000e+00    
           1.37063116e-03     9.94821894e-05     0.00000000e+00    
           1.34016457e-03     1.06731211e-04     0.00000000e+00    
           1.30931986e-03     1.06108098e-04     0.00000000e+00    
           1.28020428e-03     9.86336599e-05     0.00000000e+00    
           1.25533005e-03     8.54691825e-05     0.00000000e+00    
           1.23676774e-03     6.82514074e-05     0.00000000e+00    
           1.79822429e-03     1.42096047e-04     0.00000000e+00    
           1.75993145e-03     1.41168726e-04     0.00000000e+00    
           1.72358542e-03     1.32825342e-04     0.00000000e+00    
           1.69206434e-03     1.17677722e-04     0.00000000e+00    
           1.66673434e-03     9.67614833e-05     0.00000000e+00    
           1.64754421e-03     7.17821749e-05     0.00000000e+00    
           1.63505168e-03     4.48146820e-05     0.00000000e+00    
           1.63218856e-03    -8.91717900e-06     0.00000000e+00    
           1.64276594e-03    -3.57923927e-05     0.00000000e+00    
           1.66353106e-03    -6.34773169e-05     0.00000000e+00    
           1.69236283e-03    -8.78937281e-05     0.00000000e+00    
           1.72468612e-03    -1.05045525e-04     0.00000000e+00    
           1.75836356e-03    -1.13180002e-04     0.00000000e+00    
           1.79371773e-03    -1.13535520e-04     0.00000000e+00    
          -3.68264336e-05    -9.19147060e-05     0.00000000e+00    
          -7.92883111e-06    -7.14533453e-05     0.00000000e+00    
           1.41603368e-05    -4.60708798e-05     0.00000000e+00    
           2.88982992e-05    -1.91230210e-05     0.00000000e+00    
           3.44737600e-05     9.98791802e-06     0.00000000e+00    
           3.24780849e-05     3.82551843e-05     0.00000000e+00    
           1.96929341e-05     6.92726826e-05     0.00000000e+00    
          -1.49342804e-06     9.78258759e-05     0.00000000e+00    
          -3.04683144e-05     1.20179000e-04     0.00000000e+00    
           1.74187194e-03    -4.45159640e-05     0.00000000e+00    
           1.72909535e-03    -4.16217335e-05     0.00000000e+00    
           1.71478093e-03    -4.13608432e-05     0.00000000e+00    
           1.69966766e-03    -4.38226998e-05     0.00000000e+00    
           1.68448663e-03    -4.94344276e-05     0.00000000e+00    
           1.67302659e-03    -5.70506745e-05     0.00000000e+00    
           1.66574365e-03    -6.51601877e-05     0.00000000e+00    
           1.66163617e-03    -7.20337557e-05     0.00000000e+00    
           1.66328717e-03    -8.52818921e-05     0.00000000e+00    
           1.66882516e-03    -9.17894649e-05     0.00000000e+00    
           1.67693978e-03    -9.70489418e-05     0.00000000e+00    
           1.68660609e-03    -1.01325699e-04     0.00000000e+00    
           1.69737067e-03    -1.03806080e-04     0.00000000e+00    
           1.70952769e-03    -1.05163745e-04     0.00000000e+00    
           1.72229798e-03    -1.04847721e-04     0.00000000e+00    
           1.73515722e-03    -1.02557460e-04     0.00000000e+00    
          -1.43167505e-04    -9.16855497e-05     0.00000000e+00    
          -1.36211907e-04    -8.41275614e-05     0.00000000e+00    
          -1.32674264e-04    -7.64864308e-05     0.00000000e+00    
          -1.33935726e-04    -6.77746066e-05     0.00000000e+00    
          -1.38214964e-04    -5.88179464e-05     0.00000000e+00    
           4.21702920e-04    -5.45865259e-05     0.00000000e+00    
           4.65116405e-04    -3.70349844e-05     0.00000000e+00    
           5.01035305e-04    -1.07929582e-05     0.00000000e+00    
           5.28575911e-04     2.18599071e-05     0.00000000e+00    
           5.47068368e-04     5.90434465e-05     0.00000000e+00    
           5.54981991e-04     9.88803731e-05     0.00000000e+00    
           5.51974867e-04     1.39032156e-04     0.00000000e+00    
           5.35525032e-04     1.78459479e-04     0.00000000e+00    
           5.05295407e-04     2.15508713e-04     0.00000000e+00    
           4.64888901e-04     2.45361705e-04     0.00000000e+00    
           4.18789539e-04     2.63840775e-04     0.00000000e+00    
           3.21737083e-04     2.64578266e-04     0.00000000e+00    
           2.76463019e-04     2.48420052e-04     0.00000000e+00    
           2.37544489e-04     2.22582719e-04     0.00000000e+00    
           2.07833087e-04     1.88587641e-04     0.00000000e+00    
           1.89600716e-04     1.49231986e-04     0.00000000e+00    
           1.83079916e-04     1.07420565e-04     0.00000000e+00    
           1.87946687e-04     6.49966896e-05     0.00000000e+00    
           2.06747281e-04     2.38565517e-05     0.00000000e+00    
           2.36790031e-04    -1.13703909e-05     0.00000000e+00    
           2.76829058e-04    -3.82585895e-05     0.00000000e+00    
           3.23581218e-04    -5.52140191e-05     0.00000000e+00    
           1.73515640e-03     2.21788341e-05     0.00000000e+00    
           1.75410812e-03     4.86520148e-05     0.00000000e+00    
           1.76550169e-03     7.97856919e-05     0.00000000e+00    
           1.76671136e-03     1.14060189e-04     0.00000000e+00    
           1.75739161e-03     1.48732724e-04     0.00000000e+00    
           1.73922325e-03     1.79851646e-04     0.00000000e+00    
           1.71385647e-03     2.04869240e-04     0.00000000e+00    
           1.68439862e-03     2.22568618e-04     0.00000000e+00    
           1.65259920e-03     2.32615697e-04     0.00000000e+00    
           1.58278027e-03     2.31316182e-04     0.00000000e+00    
           1.54759246e-03     2.19535956e-04     0.00000000e+00    
           1.51648361e-03     2.00766735e-04     0.00000000e+00    
           1.49214291e-03     1.76464324e-04     0.00000000e+00    
           1.47670088e-03     1.48443170e-04     0.00000000e+00    
           1.46923447e-03     1.19011209e-04     0.00000000e+00    
           1.46940537e-03     8.97025020e-05     0.00000000e+00    
           1.47699087e-03     6.25444154e-05     0.00000000e+00    
           1.49431871e-03     3.52772004e-05     0.00000000e+00    
           1.55330810e-03    -8.51934874e-06     0.00000000e+00    
           1.58624165e-03    -1.92454590e-05     0.00000000e+00    
           1.61997939e-03    -2.29563047e-05     0.00000000e+00    
           1.65269151e-03    -2.00483009e-05     0.00000000e+00    
           1.68290187e-03    -1.15383182e-05     0.00000000e+00    
           1.49598892e-03    -1.63615361e-04     0.00000000e+00    
           1.52698637e-03    -1.52767709e-04     0.00000000e+00    
           1.55496527e-03    -1.36555071e-04     0.00000000e+00    
           1.57524948e-03    -1.15823568e-04     0.00000000e+00    
           1.58928626e-03    -9.36434444e-05     0.00000000e+00    
           1.59603555e-03    -7.14240159e-05     0.00000000e+00    
           1.59616699e-03    -4.87570287e-05     0.00000000e+00    
           1.59068080e-03    -2.51020410e-05     0.00000000e+00    
           1.57590013e-03    -2.73072345e-07     0.00000000e+00    
           1.55189668e-03     2.43141894e-05     0.00000000e+00    
           1.52248610e-03     4.31936351e-05     0.00000000e+00    
           1.49042706e-03     5.43842689e-05     0.00000000e+00    
           1.42479863e-03     5.54204089e-05     0.00000000e+00    
           1.39570783e-03     4.57952046e-05     0.00000000e+00    
           1.37065188e-03     3.15930483e-05     0.00000000e+00    
           1.35022099e-03     1.21897765e-05     0.00000000e+00    
           1.33521587e-03    -1.11783074e-05     0.00000000e+00    
           1.32645143e-03    -3.68165784e-05     0.00000000e+00    
           1.32597855e-03    -6.40898652e-05     0.00000000e+00    
           1.33447035e-03    -9.13095064e-05     0.00000000e+00    
           1.35024753e-03    -1.16871859e-04     0.00000000e+00    
           1.37268065e-03    -1.38534611e-04     0.00000000e+00    
           1.39995618e-03    -1.54484398e-04     0.00000000e+00    
           1.43047504e-03    -1.64226876e-04     0.00000000e+00    
           1.68582646e-03     1.67853432e-04     0.00000000e+00    
           1.70510996e-03     1.74294037e-04     0.00000000e+00    
           1.72098074e-03     1.84649893e-04     0.00000000e+00    
           1.73153228e-03     1.98136695e-04     0.00000000e+00    
           1.73626037e-03     2.12849278e-04     0.00000000e+00    
           1.73550111e-03     2.27743847e-04     0.00000000e+00    
           1.72906287e-03     2.42107344e-04     0.00000000e+00    
           1.71781715e-03     2.54046317e-04     0.00000000e+00    
           1.70316640e-03     2.63061927e-04     0.00000000e+00    
           1.68672868e-03     2.68091186e-04     0.00000000e+00    
           1.64975389e-03     2.69572542e-04     0.00000000e+00    
           1.63163652e-03     2.65130657e-04     0.00000000e+00    
           1.61563035e-03     2.56967440e-04     0.00000000e+00    
           1.60278333e-03     2.46125710e-04     0.00000000e+00    
           1.59537827e-03     2.31910526e-04     0.00000000e+00    
           1.59457733e-03     2.15489868e-04     0.00000000e+00    
           1.60036806e-03     1.98596696e-04     0.00000000e+00    
           1.61232403e-03     1.83585740e-04     0.00000000e+00    
           1.62746757e-03     1.73253284e-04     0.00000000e+00    
           1.64496817e-03     1.67723629e-04     0.00000000e+00    
           6.52014220e-04    -5.37617098e-06     0.00000000e+00    
           6.69199391e-04    -1.17121476e-06     0.00000000e+00    
           6.83508988e-04     7.18481351e-06     0.00000000e+00    
           6.95251336e-04     1.90905648e-05     0.00000000e+00    
           7.01500918e-04     3.31957272e-05     0.00000000e+00    
           7.03351514e-04     4.72763822e-05     0.00000000e+00    
           7.01157551e-04     6.06227040e-05     0.00000000e+00    
           6.93397538e-04     7.39163079e-05     0.00000000e+00    
           6.80716941e-04     8.38383785e-05     0.00000000e+00    
           6.65453437e-04     9.05697598e-05     0.00000000e+00    
           6.46955217e-04     9.66063453e-05     0.00000000e+00    
           6.08169183e-04     9.72822600e-05     0.00000000e+00    
           5.91382792e-04     9.15842393e-05     0.00000000e+00    
           5.77813596e-04     8.28544362e-05     0.00000000e+00    
           5.67333249e-04     7.20175303e-05     0.00000000e+00    
           5.60561370e-04     5.96910977e-05     0.00000000e+00    
           5.57837076e-04     4.66029305e-05     0.00000000e+00    
           5.60385874e-04     3.33140379e-05     0.00000000e+00    
           5.67924755e-04     2.06769218e-05     0.00000000e+00    
           5.80139284e-04     1.02344902e-05     0.00000000e+00    
           5.95334219e-04     1.60815136e-06     0.00000000e+00    
           6.13383076e-04    -4.13987209e-06     0.00000000e+00    
           3.48602480e-04     1.58025054e-04     0.00000000e+00    
           3.26843292e-04     1.30088752e-04     0.00000000e+00    
           3.13525292e-04     9.74752620e-05     0.00000000e+00    
           3.10005445e-04     6.21878280e-05     0.00000000e+00    
           3.17009195e-04     2.73285514e-05     0.00000000e+00    
           3.38101701e-04    -8.51344248e-06     0.00000000e+00    
           3.67827335e-04    -3.87518157e-05     0.00000000e+00    
           4.03091515e-04    -6.03053631e-05     0.00000000e+00    
           4.41284297e-04    -7.40539472e-05     0.00000000e+00    
           5.18166577e-04    -7.40369360e-05     0.00000000e+00    
           5.52762300e-04    -6.19084312e-05     0.00000000e+00    
           5.83804445e-04    -4.26015904e-05     0.00000000e+00    
           6.09583454e-04    -1.62800934e-05     0.00000000e+00    
           6.27921778e-04     1.60407835e-05     0.00000000e+00    
           6.35859906e-04     5.15651700e-05     0.00000000e+00    
           6.33509888e-04     8.77824350e-05     0.00000000e+00    
           6.21095358e-04     1.22660858e-04     0.00000000e+00    
           5.99307008e-04     1.53354151e-04     0.00000000e+00    
           5.33561106e-04     1.96079578e-04     0.00000000e+00    
           4.93162544e-04     2.05610864e-04     0.00000000e+00    
           4.50932566e-04     2.06987825e-04     0.00000000e+00    
           4.11164452e-04     1.97922534e-04     0.00000000e+00    
           1.03227340e-03    -1.01393285e-04     0.00000000e+00    
           1.05725334e-03    -9.21932806e-05     0.00000000e+00    
           1.07870658e-03    -7.81794515e-05     0.00000000e+00    
           1.09677727e-03    -6.00719068e-05     0.00000000e+00    
           1.10976154e-03    -3.89301822e-05     0.00000000e+00    
           1.11544784e-03    -1.54038153e-05     0.00000000e+00    
           1.11313071e-03     9.58704277e-06     0.00000000e+00    
           1.10221235e-03     3.47678761e-05     0.00000000e+00    
           1.08415133e-03     5.73218713e-05     0.00000000e+00    
           1.06151402e-03     7.41720360e-05     0.00000000e+00    
           1.03464304e-03     8.48065247e-05     0.00000000e+00    
           9.73145128e-04     8.84481269e-05     0.00000000e+00    
           9.43828316e-04     8.03223666e-05     0.00000000e+00    
           9.18235397e-04     6.56289048e-05     0.00000000e+00    
           8.98791186e-04     4.46298618e-05     0.00000000e+00    
           8.86571535e-04     1.97453646e-05     0.00000000e+00    
           8.82367545e-04    -7.23617995e-06     0.00000000e+00    
           8.86515714e-04    -3.40472361e-05     0.00000000e+00    
           8.98738159e-04    -5.82273788e-05     0.00000000e+00    
           9.18594247e-04    -7.84708027e-05     0.00000000e+00    