<?xml version="1.0"?>
<VTKFile type="UnstructuredGrid" version="0.1">
  <UnstructuredGrid>
    <Piece NumberOfPoints="1034" NumberOfCells="1614">
      <Points>
        <DataArray type="Float32" NumberOfComponents="3">
           5.21582007e-01     5.11657000e-01     0.00000000e+00    
           5.07319987e-01     5.11657000e-01     0.00000000e+00    
           4.65243995e-01     5.17907977e-01     0.00000000e+00    
           4.65243995e-01     5.04921973e-01     0.00000000e+00    
           4.75246996e-01     5.11415005e-01     0.00000000e+00    
           5.33852994e-01     5.04921973e-01     0.00000000e+00    
           5.33852994e-01     5.17907977e-01     0.00000000e+00    
           4.83779997e-01     5.34618974e-01     0.00000000e+00    
           4.68984991e-01     5.34618974e-01     0.00000000e+00    
           4.76381987e-01     5.23841977e-01     0.00000000e+00    
           4.68984991e-01     4.66010004e-01     0.00000000e+00    
           4.83779997e-01     4.66010004e-01     0.00000000e+00    
           4.99920011e-01     5.34618974e-01     0.00000000e+00    
           4.89203990e-01     5.34618974e-01     0.00000000e+00    
           4.94562000e-01     5.22280991e-01     0.00000000e+00    
           4.89203990e-01     4.66010004e-01     0.00000000e+00    
           4.99920011e-01     4.66010004e-01     0.00000000e+00    
           5.32517016e-01     4.74112004e-01     0.00000000e+00    
           5.17961025e-01     4.74112004e-01     0.00000000e+00    
           5.33852994e-01     5.19801974e-01     0.00000000e+00    
           5.33852994e-01     5.29603004e-01     0.00000000e+00    
           5.19536972e-01     5.24702013e-01     0.00000000e+00    
           4.65243995e-01     5.29603004e-01     0.00000000e+00    
           4.65243995e-01     5.19801974e-01     0.00000000e+00    
           4.92487997e-01     5.17117977e-01     0.00000000e+00    
           4.76904988e-01     5.17117977e-01     0.00000000e+00    
           5.17996013e-01     5.27033985e-01     0.00000000e+00    
           5.04473984e-01     5.27033985e-01     0.00000000e+00    
           5.08446991e-01     4.83435005e-01     0.00000000e+00    
           4.94414002e-01     4.83435005e-01     0.00000000e+00    
           4.65243995e-01     4.83101994e-01     0.00000000e+00    
           4.65243995e-01     4.74415004e-01     0.00000000e+00    
           4.78336990e-01     4.78758007e-01     0.00000000e+00    
           5.33852994e-01     4.74415004e-01     0.00000000e+00    
           5.33852994e-01     4.83101994e-01     0.00000000e+00    
           4.80668008e-01     4.95810986e-01     0.00000000e+00    
           4.66084987e-01     4.95810986e-01     0.00000000e+00    
           4.93930012e-01     4.79214013e-01     0.00000000e+00    
           4.78967011e-01     4.79214013e-01     0.00000000e+00    
           5.09284973e-01     4.97658014e-01     0.00000000e+00    
           4.95503992e-01     4.97658014e-01     0.00000000e+00    
           5.33011973e-01     5.01751006e-01     0.00000000e+00    
           5.17829001e-01     5.01751006e-01     0.00000000e+00    
           4.95451003e-01     5.00564992e-01     0.00000000e+00    
           4.80922014e-01     5.00564992e-01     0.00000000e+00    
           5.25367022e-01     4.88312006e-01     0.00000000e+00    
           5.09521008e-01     4.88312006e-01     0.00000000e+00    
           4.65243995e-01     5.34618974e-01     0.00000000e+00    
           4.65243995e-01     4.66010004e-01     0.00000000e+00    
           5.33852994e-01     4.66010004e-01     0.00000000e+00    
           5.33852994e-01     5.34618974e-01     0.00000000e+00    
           5.21338999e-01     5.13502657e-01     0.00000000e+00    
           5.20626605e-01     5.15222490e-01     0.00000000e+00    
           5.19493401e-01     5.16699374e-01     0.00000000e+00    
           5.18016517e-01     5.17832637e-01     0.00000000e+00    
           5.16296625e-01     5.18545032e-01     0.00000000e+00    
           5.14451027e-01     5.18787980e-01     0.00000000e+00    
           5.12605369e-01     5.18545032e-01     0.00000000e+00    
           5.10885477e-01     5.17832637e-01     0.00000000e+00    
           5.09408593e-01     5.16699374e-01     0.00000000e+00    
           5.08275390e-01     5.15222490e-01     0.00000000e+00    
           5.07562995e-01     5.13502657e-01     0.00000000e+00    
           5.07562995e-01     5.09811342e-01     0.00000000e+00    
           5.08275390e-01     5.08091509e-01     0.00000000e+00    
           5.09408593e-01     5.06614625e-01     0.00000000e+00    
           5.10885477e-01     5.05481362e-01     0.00000000e+00    
           5.12605369e-01     5.04768968e-01     0.00000000e+00    
           5.14451027e-01     5.04526019e-01     0.00000000e+00    
           5.16296625e-01     5.04768968e-01     0.00000000e+00    
           5.18016517e-01     5.05481362e-01     0.00000000e+00    
           5.19493401e-01     5.06614625e-01     0.00000000e+00    
           5.20626605e-01     5.08091509e-01     0.00000000e+00    
           5.21338999e-01     5.09811342e-01     0.00000000e+00    
           4.66931671e-01     5.04409373e-01     0.00000000e+00    
           4.68693614e-01     5.04328012e-01     0.00000000e+00    
           4.70421344e-01     5.04682958e-01     0.00000000e+00    
           4.72008497e-01     5.05452335e-01     0.00000000e+00    
           4.73357379e-01     5.06588817e-01     0.00000000e+00    
           4.74384934e-01     5.08022368e-01     0.00000000e+00    
           4.75027919e-01     5.09664834e-01     0.00000000e+00    
           4.75028187e-01     5.13165236e-01     0.00000000e+00    
           4.74385172e-01     5.14807761e-01     0.00000000e+00    
           4.73357558e-01     5.16241372e-01     0.00000000e+00    
           4.72008646e-01     5.17377913e-01     0.00000000e+00    
           4.70421433e-01     5.18147290e-01     0.00000000e+00    
           4.68693614e-01     5.18502235e-01     0.00000000e+00    
           4.66931641e-01     5.18420875e-01     0.00000000e+00    
           5.32303810e-01     5.16964078e-01     0.00000000e+00    
           5.31043947e-01     5.15658796e-01     0.00000000e+00    
           5.30155540e-01     5.14077127e-01     0.00000000e+00    
           5.29696345e-01     5.12322068e-01     0.00000000e+00    
           5.29696345e-01     5.10507941e-01     0.00000000e+00    
           5.30155540e-01     5.08752882e-01     0.00000000e+00    
           5.31043947e-01     5.07171214e-01     0.00000000e+00    
           5.32303810e-01     5.05865932e-01     0.00000000e+00    
           4.68517244e-01     5.32760799e-01     0.00000000e+00    
           4.68509018e-01     5.30844629e-01     0.00000000e+00    
           4.68960851e-01     5.28982460e-01     0.00000000e+00    
           4.69846308e-01     5.27283132e-01     0.00000000e+00    
           4.71113682e-01     5.25845945e-01     0.00000000e+00    
           4.72688884e-01     5.24754822e-01     0.00000000e+00    
           4.74479854e-01     5.24073541e-01     0.00000000e+00    
           4.78284091e-01     5.24073601e-01     0.00000000e+00    
           4.80075032e-01     5.24754822e-01     0.00000000e+00    
           4.81650203e-01     5.25845885e-01     0.00000000e+00    
           4.82917547e-01     5.27283013e-01     0.00000000e+00    
           4.83803004e-01     5.28982282e-01     0.00000000e+00    
           4.84254897e-01     5.30844331e-01     0.00000000e+00    
           4.84246761e-01     5.32760441e-01     0.00000000e+00    
           4.82887864e-01     4.67691004e-01     0.00000000e+00    
           4.81620818e-01     4.69110936e-01     0.00000000e+00    
           4.80051905e-01     4.70188022e-01     0.00000000e+00    
           4.78271484e-01     4.70860153e-01     0.00000000e+00    
           4.76382166e-01     4.71088618e-01     0.00000000e+00    
           4.74492878e-01     4.70860243e-01     0.00000000e+00    
           4.72712427e-01     4.70188200e-01     0.00000000e+00    
           4.71143454e-01     4.69111174e-01     0.00000000e+00    
           4.69876349e-01     4.67691302e-01     0.00000000e+00    
           4.88103986e-01     5.33086061e-01     0.00000000e+00    
           4.87431526e-01     5.31323195e-01     0.00000000e+00    
           4.87231195e-01     5.29447019e-01     0.00000000e+00    
           4.87516224e-01     5.27581930e-01     0.00000000e+00    
           4.88267750e-01     5.25851250e-01     0.00000000e+00    
           4.89436030e-01     5.24369657e-01     0.00000000e+00    
           4.90943670e-01     5.23235261e-01     0.00000000e+00    
           4.92690891e-01     5.22523046e-01     0.00000000e+00    
           4.96432930e-01     5.22523701e-01     0.00000000e+00    
           4.98180002e-01     5.23235798e-01     0.00000000e+00    
           4.99687493e-01     5.24370134e-01     0.00000000e+00    
           5.00855684e-01     5.25851607e-01     0.00000000e+00    
           5.01607120e-01     5.27582109e-01     0.00000000e+00    
           5.01892149e-01     5.29447079e-01     0.00000000e+00    
           5.01691818e-01     5.31323016e-01     0.00000000e+00    
           5.01019418e-01     5.33085763e-01     0.00000000e+00    
           4.98371124e-01     4.67269689e-01     0.00000000e+00    
           4.96539861e-01     4.68064904e-01     0.00000000e+00    
           4.94562000e-01     4.68336672e-01     0.00000000e+00    
           4.92584139e-01     4.68064904e-01     0.00000000e+00    
           4.90752876e-01     4.67269689e-01     0.00000000e+00    
           5.32269001e-01     4.75995690e-01     0.00000000e+00    
           5.31541944e-01     4.77750987e-01     0.00000000e+00    
           5.30385315e-01     4.79258329e-01     0.00000000e+00    
           5.28877974e-01     4.80414927e-01     0.00000000e+00    
[...]
      <PointData>
        <DataArray type="Float32" Name="Displacement" NumberOfComponents="3">
           1.48706895e-03     1.65385733e-04     0.00000000e+00    
           1.48638978e-03     3.57977755e-04     0.00000000e+00    
           1.63496064e-03     5.27035008e-05     0.00000000e+00    
           1.39378756e-03     6.17448095e-05     0.00000000e+00    
           1.51653436e-03    -9.06994755e-05     0.00000000e+00    
           1.39378756e-03     6.17448095e-05     0.00000000e+00    
           1.63496064e-03     5.27035008e-05     0.00000000e+00    
           2.07001157e-03    -1.31019988e-04     0.00000000e+00    
           2.07728706e-03     1.46227350e-04     0.00000000e+00    
           1.84475409e-03     1.06539046e-05     0.00000000e+00    
          -7.27129518e-05     1.46227350e-04     0.00000000e+00    
          -7.99884656e-05    -1.31019988e-04     0.00000000e+00    
           1.97667349e-03    -1.27321997e-04     0.00000000e+00    
           1.98327843e-03    -7.46232254e-05     0.00000000e+00    
           1.88504322e-03    -1.05122781e-04     0.00000000e+00    
          -1.66721671e-04    -7.46232254e-05     0.00000000e+00    
          -1.73326451e-04    -1.27321997e-04     0.00000000e+00    
           4.43420693e-04    -6.28052076e-05     0.00000000e+00    
           4.40941658e-04     3.19054321e-04     0.00000000e+00    
           1.72641070e-03     1.76398353e-05     0.00000000e+00    
           1.93709566e-03     8.49831667e-06     0.00000000e+00    
           1.83413387e-03     2.77429121e-04     0.00000000e+00    
           1.93709566e-03     8.49831667e-06     0.00000000e+00    
           1.72641070e-03     1.76398353e-05     0.00000000e+00    
           1.66207727e-03    -2.05318647e-04     0.00000000e+00    
           1.65592134e-03     5.10340615e-05     0.00000000e+00    
           1.88579690e-03     2.07624471e-04     0.00000000e+00    
           1.88894931e-03     3.30880808e-04     0.00000000e+00    
           7.32500514e-04    -1.63833738e-05     0.00000000e+00    
           7.27699138e-04     9.97221796e-05     0.00000000e+00    
           6.70471461e-04     2.00821640e-04     0.00000000e+00    
           4.48728184e-04     2.04120865e-04     0.00000000e+00    
           5.67018753e-04    -9.79360484e-05     0.00000000e+00    
           4.48728184e-04     2.04120865e-04     0.00000000e+00    
           6.70471461e-04     2.00821640e-04     0.00000000e+00    
           1.15005404e-03    -1.25820283e-04     0.00000000e+00    
           1.15029071e-03     1.01518366e-04     0.00000000e+00    
           6.10840565e-04    -2.10955142e-04     0.00000000e+00    
           6.01707026e-04     1.35300970e-05     0.00000000e+00    
           1.16444856e-03     7.10995810e-05     0.00000000e+00    
           1.17275177e-03     4.62134885e-05     0.00000000e+00    
           1.29125593e-03     7.89246405e-06     0.00000000e+00    
           1.29557576e-03     2.55631574e-04     0.00000000e+00    
           1.19871483e-03    -1.37016774e-04     0.00000000e+00    
           1.20633072e-03    -3.74066258e-05     0.00000000e+00    
           8.91612843e-04     9.98278119e-05     0.00000000e+00    
           8.90080701e-04     4.48067847e-04     0.00000000e+00    
           2.15000007e-03     0.00000000e+00     0.00000000e+00    
           0.00000000e+00     0.00000000e+00     0.00000000e+00    
           0.00000000e+00     0.00000000e+00     0.00000000e+00    
           2.15000007e-03     0.00000000e+00     0.00000000e+00    
           1.51898200e-03     1.68682542e-04     0.00000000e+00    
           1.54789083e-03     1.79185226e-04     0.00000000e+00    
           1.57203968e-03     1.94665947e-04     0.00000000e+00    
           1.58998696e-03     2.14136991e-04     0.00000000e+00    
           1.60073128e-03     2.36933483e-04     0.00000000e+00    
           1.60454563e-03     2.60842819e-04     0.00000000e+00    
           1.60043989e-03     2.86136579e-04     0.00000000e+00    
           1.58818893e-03     3.10548261e-04     0.00000000e+00    
           1.56805594e-03     3.31522751e-04     0.00000000e+00    
           1.54351897e-03     3.46142624e-04     0.00000000e+00    
           1.51608209e-03     3.55352473e-04     0.00000000e+00    
           1.45661330e-03     3.53723619e-04     0.00000000e+00    
           1.42889365e-03     3.43798893e-04     0.00000000e+00    
           1.40534958e-03     3.28648544e-04     0.00000000e+00    
           1.38731499e-03     3.10413627e-04     0.00000000e+00    
           1.37613784e-03     2.89100455e-04     0.00000000e+00    
           1.37281907e-03     2.66191579e-04     0.00000000e+00    
           1.37573422e-03     2.43637172e-04     0.00000000e+00    
           1.38368283e-03     2.23777562e-04     0.00000000e+00    
           1.39764196e-03     2.05460005e-04     0.00000000e+00    
           1.42233528e-03     1.84989971e-04     0.00000000e+00    
           1.45396800e-03     1.70587868e-04     0.00000000e+00    
           1.38560112e-03     3.96645264e-05     0.00000000e+00    
           1.38390868e-03     1.50964743e-05     0.00000000e+00    
           1.38989789e-03    -1.12907683e-05     0.00000000e+00    
           1.40430930e-03    -3.71176866e-05     0.00000000e+00    
           1.42582366e-03    -5.99143204e-05     0.00000000e+00    
           1.45278429e-03    -7.69838734e-05     0.00000000e+00    
           1.48359663e-03    -8.71678276e-05     0.00000000e+00    
           1.54876534e-03    -8.72130331e-05     0.00000000e+00    
           1.57762342e-03    -7.68806349e-05     0.00000000e+00    
           1.60216237e-03    -6.12060612e-05     0.00000000e+00    
           1.62092294e-03    -4.09347558e-05     0.00000000e+00    
           1.63418322e-03    -1.78756909e-05     0.00000000e+00    
           1.64128805e-03     6.10928146e-06     0.00000000e+00    
           1.64128293e-03     2.99628555e-05     0.00000000e+00    
           1.61899778e-03     7.78107715e-05     0.00000000e+00    
           1.59281434e-03     1.01028665e-04     0.00000000e+00    
           1.56066765e-03     1.18418939e-04     0.00000000e+00    
           1.52628601e-03     1.26750674e-04     0.00000000e+00    
           1.49142649e-03     1.26183993e-04     0.00000000e+00    
           1.45848026e-03     1.17788906e-04     0.00000000e+00    
           1.43016723e-03     1.02747952e-04     0.00000000e+00    
           1.40875007e-03     8.28475313e-05     0.00000000e+00    
           2.03500362e-03     1.54263078e-04     0.00000000e+00    
           1.99184008e-03     1.53317334e-04     0.00000000e+00    
           1.95073965e-03     1.43823243e-04     0.00000000e+00    
           1.91495218e-03     1.26418672e-04     0.00000000e+00    
           1.88610144e-03     1.02344857e-04     0.00000000e+00    
           1.86427834e-03     7.35356589e-05     0.00000000e+00    
           1.85014913e-03     4.23087731e-05     0.00000000e+00    
           1.84722873e-03    -2.02557712e-05     0.00000000e+00    
           1.85940182e-03    -5.12721563e-05     0.00000000e+00    
           1.88289443e-03    -8.27533149e-05     0.00000000e+00    
           1.91536383e-03    -1.10266446e-04     0.00000000e+00    
           1.95179915e-03    -1.29613851e-04     0.00000000e+00    
           1.98979396e-03    -1.38810297e-04     0.00000000e+00    
           2.02967529e-03    -1.39203970e-04     0.00000000e+00    
          -4.21056648e-05    -1.14507508e-04     0.00000000e+00    
          -9.53582457e-06    -9.11288007e-05     0.00000000e+00    
           1.53919973e-05    -6.19625789e-05     0.00000000e+00    
           3.19450810e-05    -3.06381226e-05     0.00000000e+00    
           3.81733043e-05     3.16265368e-06     0.00000000e+00    
           3.57678291e-05     3.58986435e-05     0.00000000e+00    
           2.14149477e-05     7.12734254e-05     0.00000000e+00    
          -2.24088103e-06     1.03597755e-04     0.00000000e+00    
          -3.47063142e-05     1.28991829e-04     0.00000000e+00    
           1.97168882e-03    -6.83409016e-05     0.00000000e+00    
           1.95795414e-03    -6.51699156e-05     0.00000000e+00    
           1.94255891e-03    -6.48485802e-05     0.00000000e+00    
           1.92638615e-03    -6.74537441e-05     0.00000000e+00    
           1.91030605e-03    -7.33154666e-05     0.00000000e+00    
           1.89818104e-03    -8.14145606e-05     0.00000000e+00    
           1.89036306e-03    -9.01863459e-05     0.00000000e+00    
           1.88588107e-03    -9.77987147e-05     0.00000000e+00    
           1.88742403e-03    -1.12703630e-04     0.00000000e+00    
           1.89335051e-03    -1.20089346e-04     0.00000000e+00    
           1.90209644e-03    -1.26080718e-04     0.00000000e+00    
           1.91254623e-03    -1.30943416e-04     0.00000000e+00    
           1.92417915e-03    -1.33685564e-04     0.00000000e+00    
           1.93715445e-03    -1.35095397e-04     0.00000000e+00    
           1.95074792e-03    -1.34637405e-04     0.00000000e+00    
           1.96437840e-03    -1.31989698e-04     0.00000000e+00    
          -1.62661949e-04    -1.19917488e-04     0.00000000e+00    
          -1.55225192e-04    -1.11598129e-04     0.00000000e+00    
          -1.51461049e-04    -1.03145780e-04     0.00000000e+00    
          -1.52827241e-04    -9.35690623e-05     0.00000000e+00    
          -1.57217160e-04    -8.38588676e-05     0.00000000e+00    
           4.98944020e-04    -5.60710541e-05     0.00000000e+00    
           5.48778626e-04    -3.58542202e-05     0.00000000e+00    
           5.90165728e-04    -5.37455071e-06     0.00000000e+00    
           6.21866318e-04     3.27650414e-05     0.00000000e+00    
           6.42959087e-04     7.61854826e-05     0.00000000e+00    
           6.51770271e-04     1.22629281e-04     0.00000000e+00    
           6.47941313e-04     1.69316641e-04     0.00000000e+00    
           6.28910610e-04     2.14846688e-04     0.00000000e+00    
           5.94460755e-04     2.57196050e-04     0.00000000e+00    
           5.48582932e-04     2.91170145e-04     0.00000000e+00    
           4.96166234e-04     3.12243908e-04     0.00000000e+00    
           3.85625550e-04     3.13025113e-04     0.00000000e+00    
           3.34014272e-04     2.94343539e-04     0.00000000e+00    
           2.89562653e-04     2.64402275e-04     0.00000000e+00    
           2.55607767e-04     2.25023352e-04     0.00000000e+00    
           2.34634877e-04     1.79427254e-04     0.00000000e+00    
           2.27091310e-04     1.31039211e-04     0.00000000e+00    
           2.32563558e-04     8.21653957e-05     0.00000000e+00    
           2.53819802e-04     3.48937574e-05     0.00000000e+00    
           2.87881965e-04    -5.75626882e-06     0.00000000e+00    
           3.33530828e-04    -3.69863956e-05     0.00000000e+00    
           3.86894390e-04    -5.66568633e-05     0.00000000e+00    
           1.96599960e-03     3.26383633e-05     0.00000000e+00    
           1.98748009e-03     6.32496303e-05     0.00000000e+00    
           2.00028345e-03     9.91439010e-05     0.00000000e+00    
           2.00160360e-03     1.38405856e-04     0.00000000e+00    
           1.99119863e-03     1.77923197e-04     0.00000000e+00    
           1.97080127e-03     2.13383086e-04     0.00000000e+00    
           1.94218999e-03     2.42002323e-04     0.00000000e+00    
           1.90881407e-03     2.62375601e-04     0.00000000e+00    
           1.87266769e-03     2.74057937e-04     0.00000000e+00    
           1.79364171e-03     2.72665202e-04     0.00000000e+00    
           1.75399787e-03     2.59186549e-04     0.00000000e+00    
           1.71892496e-03     2.37692468e-04     0.00000000e+00    
           1.69139833e-03     2.09766426e-04     0.00000000e+00    
           1.67385640e-03     1.77512586e-04     0.00000000e+00    
           1.66543724e-03     1.43522382e-04     0.00000000e+00    
           1.66580314e-03     1.09625063e-04     0.00000000e+00    
           1.67470169e-03     7.81535200e-05     0.00000000e+00    
           1.69442431e-03     4.68876533e-05     0.00000000e+00    
           1.76053273e-03    -2.72876196e-06     0.00000000e+00    
           1.79751357e-03    -1.49524121e-05     0.00000000e+00    
           1.83548790e-03    -1.92510906e-05     0.00000000e+00    
           1.87241344e-03    -1.60165764e-05     0.00000000e+00    
           1.90663000e-03    -6.30663635e-06     0.00000000e+00    
           1.69873482e-03    -2.01119998e-04     0.00000000e+00    
           1.73318596e-03    -1.89103303e-04     0.00000000e+00    
           1.76433474e-03    -1.70898013e-04     0.00000000e+00    
           1.78713410e-03    -1.47448605e-04     0.00000000e+00    
           1.80298463e-03    -1.22036850e-04     0.00000000e+00    
           1.81077875e-03    -9.63024941e-05     0.00000000e+00    
           1.81095302e-03    -7.00953824e-05     0.00000000e+00    
           1.80463609e-03    -4.29528700e-05     0.00000000e+00    
           1.78808183e-03    -1.48015097e-05     0.00000000e+00    
           1.76143576e-03     1.27281282e-05     0.00000000e+00    
           1.72880373e-03     3.38323443e-05     0.00000000e+00    
           1.69312977e-03     4.63957840e-05     0.00000000e+00    
           1.61991222e-03     4.74900662e-05     0.00000000e+00    
           1.58728450e-03     3.65419473e-05     0.00000000e+00    
           1.55914621e-03     2.02376050e-05     0.00000000e+00    
           1.53626106e-03    -1.95840789e-06     0.00000000e+00    
           1.51957897e-03    -2.86175164e-05     0.00000000e+00    
           1.50999788e-03    -5.77986939e-05     0.00000000e+00    
           1.50962395e-03    -8.87280985e-05     0.00000000e+00    
           1.51918258e-03    -1.19510703e-04     0.00000000e+00    
           1.53676188e-03    -1.48301246e-04     0.00000000e+00    
           1.56170921e-03    -1.72640284e-04     0.00000000e+00    
           1.59199361e-03    -1.90594481e-04     0.00000000e+00    
           1.62588491e-03    -2.01608957e-04     0.00000000e+00    
           1.90917228e-03     2.10081620e-04     0.00000000e+00    
           1.93096674e-03     2.17640147e-04     0.00000000e+00    
           1.94884604e-03     2.29749232e-04     0.00000000e+00    
           1.96071970e-03     2.45510950e-04     0.00000000e+00    
           1.96610275e-03     2.62755028e-04     0.00000000e+00    
           1.96527806e-03     2.80197622e-04     0.00000000e+00    
           1.95812015e-03     2.96943326e-04     0.00000000e+00    
           1.94551982e-03     3.10947362e-04     0.00000000e+00    
           1.92886789e-03     3.21762578e-04     0.00000000e+00    
           1.90988265e-03     3.27944144e-04     0.00000000e+00    
           1.86748488e-03     3.29570554e-04     0.00000000e+00    
           1.84688705e-03     3.24110821e-04     0.00000000e+00    
           1.82883337e-03     3.14240897e-04     0.00000000e+00    
           1.81450113e-03     3.01265856e-04     0.00000000e+00    
           1.80631212e-03     2.84613256e-04     0.00000000e+00    
           1.80547754e-03     2.65581039e-04     0.00000000e+00    
           1.81195233e-03     2.46148586e-04     0.00000000e+00    
           1.82532473e-03     2.28802906e-04     0.00000000e+00    
           1.84255198e-03     2.16655360e-04     0.00000000e+00    
           1.86261581e-03     2.09980688e-04     0.00000000e+00    
           7.53294211e-04    -1.49459038e-05     0.00000000e+00    
           7.71847437e-04    -1.02827971e-05     0.00000000e+00    
           7.87340919e-04    -1.15774640e-06     0.00000000e+00    
           8.00035312e-04     1.18331482e-05     0.00000000e+00    
           8.06854863e-04     2.72461857e-05     0.00000000e+00    
           8.08901561e-04     4.27435662e-05     0.00000000e+00    
           8.06552474e-04     5.75007471e-05     0.00000000e+00    
           7.98251247e-04     7.21022443e-05     0.00000000e+00    
           7.84759759e-04     8.30634526e-05     0.00000000e+00    
           7.68469006e-04     9.04769768e-05     0.00000000e+00    
           7.48699997e-04     9.70954497e-05     0.00000000e+00    
           7.06949562e-04     9.79063043e-05     0.00000000e+00    
           6.88729517e-04     9.16881982e-05     0.00000000e+00    
           6.73886680e-04     8.21252033e-05     0.00000000e+00    
           6.62383100e-04     7.01461031e-05     0.00000000e+00    
           6.54999167e-04     5.65444680e-05     0.00000000e+00    
           6.52059738e-04     4.21628902e-05     0.00000000e+00    
           6.54780946e-04     2.76184692e-05     0.00000000e+00    
           6.62894861e-04     1.37754405e-05     0.00000000e+00    
           6.76034135e-04     2.30351475e-06     0.00000000e+00    
           6.92333677e-04    -7.21784409e-06     0.00000000e+00    
           7.11777830e-04    -1.35854789e-05     0.00000000e+00    
           4.16498398e-04     1.77303707e-04     0.00000000e+00    
           3.91557289e-04     1.44333942e-04     0.00000000e+00    
           3.76461976e-04     1.06039595e-04     0.00000000e+00    
           3.72589653e-04     6.46999906e-05     0.00000000e+00    
           3.80711397e-04     2.41073540e-05     0.00000000e+00    
           4.04552033e-04    -1.71508400e-05     0.00000000e+00    
           4.38212999e-04    -5.18674533e-05     0.00000000e+00    
           4.78348637e-04    -7.67854217e-05     0.00000000e+00    
           5.22067014e-04    -9.27212604e-05     0.00000000e+00    
           6.10506861e-04    -9.26005814e-05     0.00000000e+00    
           6.50473638e-04    -7.82724455e-05     0.00000000e+00    
           6.86219311e-04    -5.55822990e-05     0.00000000e+00    
           7.15753064e-04    -2.48644865e-05     0.00000000e+00    
           7.36685412e-04     1.26491504e-05     0.00000000e+00    
           7.45797006e-04     5.38360291e-05     0.00000000e+00    
           7.43157230e-04     9.58161618e-05     0.00000000e+00    
           7.29011139e-04     1.36269038e-04     0.00000000e+00    
           7.04137143e-04     1.71956533e-04     0.00000000e+00    
           6.28855429e-04     2.21838956e-04     0.00000000e+00    
           5.82539011e-04     2.33022336e-04     0.00000000e+00    
           5.34225488e-04     2.34514955e-04     0.00000000e+00    
           4.88611462e-04     2.23990617e-04     0.00000000e+00    
           1.18251902e-03    -1.21701960e-04     0.00000000e+00    
           1.21134648e-03    -1.10887311e-04     0.00000000e+00    
           1.23609672e-03    -9.43400883e-05     0.00000000e+00    
           1.25677779e-03    -7.29875464e-05     0.00000000e+00    
           1.27149583e-03    -4.80477065e-05     0.00000000e+00    
           1.27782975e-03    -2.04024254e-05     0.00000000e+00    
           1.27500517e-03     8.77462389e-06     0.00000000e+00    
           1.26244954e-03     3.79024386e-05     0.00000000e+00    
           1.24174939e-03     6.38798811e-05     0.00000000e+00    
           1.21570961e-03     8.33469676e-05     0.00000000e+00    
           1.18486560e-03     9.56299045e-05     0.00000000e+00    
           1.11474120e-03     9.94123257e-05     0.00000000e+00    
           1.08139636e-03     8.97663485e-05     0.00000000e+00    
           1.05232862e-03     7.25490027e-05     0.00000000e+00    
           1.03026337e-03     4.81631178e-05     0.00000000e+00    
           1.01642194e-03     1.93397900e-05     0.00000000e+00    
           1.01167103e-03    -1.18832986e-05     0.00000000e+00    
           1.01638865e-03    -4.29281936e-05     0.00000000e+00    
           1.03023765e-03    -7.10345266e-05     0.00000000e+00    
           1.05276855e-03    -9.46271102e-05     0.00000000e+00    