<?xml version="1.0"?>
<VTKFile type="UnstructuredGrid" version="0.1">
  <UnstructuredGrid>
    <Piece NumberOfPoints="1034" NumberOfCells="1614">
      <Points>
        <DataArray type="Float32" NumberOfComponents="3">
           5.21582007e-01     5.11657000e-01     0.00000000e+00    
           5.07319987e-01     5.11657000e-01     0.00000000e+00    
           4.65243995e-01     5.17907977e-01     0.00000000e+00    
           4.65243995e-01     5.04921973e-01     0.00000000e+00    
           4.75246996e-01     5.11415005e-01     0.00000000e+00    
           5.33852994e-01     5.04921973e-01     0.00000000e+00    
           5.33852994e-01     5.17907977e-01     0.00000000e+00    
           4.83779997e-01     5.34618974e-01     0.00000000e+00    
           4.68984991e-01     5.34618974e-01     0.00000000e+00    
           4.76381987e-01     5.23841977e-01     0.00000000e+00    
           4.68984991e-01     4.66010004e-01     0.00000000e+00    
           4.83779997e-01     4.66010004e-01     0.00000000e+00    
           4.99920011e-01     5.34618974e-01     0.00000000e+00    
           4.89203990e-01     5.34618974e-01     0.00000000e+00    
           4.94562000e-01     5.22280991e-01     0.00000000e+00    
           4.89203990e-01     4.66010004e-01     0.00000000e+00    
           4.99920011e-01     4.66010004e-01     0.00000000e+00    
           5.32517016e-01     4.74112004e-01     0.00000000e+00    
           5.17961025e-01     4.74112004e-01     0.00000000e+00    
           5.33852994e-01     5.19801974e-01     0.00000000e+00    
           5.33852994e-01     5.29603004e-01     0.00000000e+00    
           5.19536972e-01     5.24702013e-01     0.00000000e+00    
           4.65243995e-01     5.29603004e-01     0.00000000e+00    
           4.65243995e-01     5.19801974e-01     0.00000000e+00    
           4.92487997e-01     5.17117977e-01     0.00000000e+00    
           4.76904988e-01     5.17117977e-01     0.00000000e+00    
           5.17996013e-01     5.27033985e-01     0.00000000e+00    
           5.04473984e-01     5.27033985e-01     0.00000000e+00    
           5.08446991e-01     4.83435005e-01     0.00000000e+00    
           4.94414002e-01     4.83435005e-01     0.00000000e+00    
           4.65243995e-01     4.83101994e-01     0.00000000e+00    
           4.65243995e-01     4.74415004e-01     0.00000000e+00    
           4.78336990e-01     4.78758007e-01     0.00000000e+00    
           5.33852994e-01     4.74415004e-01     0.00000000e+00    
           5.33852994e-01     4.83101994e-01     0.00000000e+00    
           4.80668008e-01     4.95810986e-01     0.00000000e+00    
           4.66084987e-01     4.95810986e-01     0.00000000e+00    
           4.93930012e-01     4.79214013e-01     0.00000000e+00    
           4.78967011e-01     4.79214013e-01     0.00000000e+00    
           5.09284973e-01     4.97658014e-01     0.00000000e+00    
           4.95503992e-01     4.97658014e-01     0.00000000e+00    
           5.33011973e-01     5.01751006e-01     0.00000000e+00    
           5.17829001e-01     5.01751006e-01     0.00000000e+00    
           4.95451003e-01     5.00564992e-01     0.00000000e+00    
           4.80922014e-01     5.00564992e-01     0.00000000e+00    
           5.25367022e-01     4.88312006e-01     0.00000000e+00    
           5.09521008e-01     4.88312006e-01     0.00000000e+00    
           4.65243995e-01     5.34618974e-01     0.00000000e+00    
           4.65243995e-01     4.66010004e-01     0.00000000e+00    
           5.33852994e-01     4.66010004e-01     0.00000000e+00    
           5.33852994e-01     5.34618974e-01     0.00000000e+00    
           5.21338999e-01     5.13502657e-01     0.00000000e+00    
           5.20626605e-01     5.15222490e-01     0.00000000e+00    
           5.19493401e-01     5.16699374e-01     0.00000000e+00    
           5.18016517e-01     5.17832637e-01     0.00000000e+00    
           5.16296625e-01     5.18545032e-01     0.00000000e+00    
           5.14451027e-01     5.18787980e-01     0.00000000e+00    
           5.12605369e-01     5.18545032e-01     0.00000000e+00    
           5.10885477e-01     5.17832637e-01     0.00000000e+00    
           5.09408593e-01     5.16699374e-01     0.00000000e+00    
           5.08275390e-01     5.15222490e-01     0.00000000e+00    
           5.07562995e-01     5.13502657e-01     0.00000000e+00    
           5.07562995e-01     5.09811342e-01     0.00000000e+00    
           5.08275390e-01     5.08091509e-01     0.00000000e+00    
           5.09408593e-01     5.06614625e-01     0.00000000e+00    
           5.10885477e-01     5.05481362e-01     0.00000000e+00    
           5.12605369e-01     5.04768968e-01     0.00000000e+00    
           5.14451027e-01     5.04526019e-01     0.00000000e+00    
           5.16296625e-01     5.04768968e-01     0.00000000e+00    
           5.18016517e-01     5.05481362e-01     0.00000000e+00    
           5.19493401e-01     5.06614625e-01     0.00000000e+00    
           5.20626605e-01     5.08091509e-01     0.00000000e+00    
           5.21338999e-01     5.09811342e-01     0.00000000e+00    
           4.66931671e-01     5.04409373e-01     0.00000000e+00    
           4.68693614e-01     5.04328012e-01     0.00000000e+00    
           4.70421344e-01     5.04682958e-01     0.00000000e+00    
           4.72008497e-01     5.05452335e-01     0.00000000e+00    
           4.73357379e-01     5.06588817e-01     0.00000000e+00    
           4.74384934e-01     5.08022368e-01     0.00000000e+00    
           4.75027919e-01     5.09664834e-01     0.00000000e+00    
           4.75028187e-01     5.13165236e-01     0.00000000e+00    
           4.74385172e-01     5.14807761e-01     0.00000000e+00    
           4.73357558e-01     5.16241372e-01     0.00000000e+00    
           4.72008646e-01     5.17377913e-01     0.00000000e+00    
           4.70421433e-01     5.18147290e-01     0.00000000e+00    
           4.68693614e-01     5.18502235e-01     0.00000000e+00    
           4.66931641e-01     5.18420875e-01     0.00000000e+00    
           5.32303810e-01     5.16964078e-01     0.00000000e+00    
           5.31043947e-01     5.15658796e-01     0.00000000e+00    
           5.30155540e-01     5.14077127e-01     0.00000000e+00    
           5.29696345e-01     5.12322068e-01     0.00000000e+00    
           5.29696345e-01     5.10507941e-01     0.00000000e+00    
           5.30155540e-01     5.08752882e-01     0.00000000e+00    
           5.31043947e-01     5.07171214e-01     0.00000000e+00    
           5.32303810e-01     5.05865932e-01     0.00000000e+00    
           4.68517244e-01     5.32760799e-01     0.00000000e+00    
           4.68509018e-01     5.30844629e-01     0.00000000e+00    
           4.68960851e-01     5.28982460e-01     0.00000000e+00    
           4.69846308e-01     5.27283132e-01     0.00000000e+00    
           4.71113682e-01     5.25845945e-01     0.00000000e+00    
           4.72688884e-01     5.24754822e-01     0.00000000e+00    
           4.74479854e-01     5.24073541e-01     0.00000000e+00    
           4.78284091e-01     5.24073601e-01     0.00000000e+00    
           4.80075032e-01     5.24754822e-01     0.00000000e+00    
           4.81650203e-01     5.25845885e-01     0.00000000e+00    
           4.82917547e-01     5.27283013e-01     0.00000000e+00    
           4.83803004e-01     5.28982282e-01     0.00000000e+00    
           4.84254897e-01     5.30844331e-01     0.00000000e+00    
           4.84246761e-01     5.32760441e-01     0.00000000e+00    
           4.82887864e-01     4.67691004e-01     0.00000000e+00    
           4.81620818e-01     4.69110936e-01     0.00000000e+00    
           4.80051905e-01     4.70188022e-01     0.00000000e+00    
           4.78271484e-01     4.70860153e-01     0.00000000e+00    
           4.76382166e-01     4.71088618e-01     0.00000000e+00    
           4.74492878e-01     4.70860243e-01     0.00000000e+00    
           4.72712427e-01     4.70188200e-01     0.00000000e+00    
           4.71143454e-01     4.69111174e-01     0.00000000e+00    
           4.69876349e-01     4.67691302e-01     0.00000000e+00    
           4.88103986e-01     5.33086061e-01     0.00000000e+00    
           4.87431526e-01     5.31323195e-01     0.00000000e+00    
           4.87231195e-01     5.29447019e-01     0.00000000e+00    
           4.87516224e-01     5.27581930e-01     0.00000000e+00    
           4.88267750e-01     5.25851250e-01     0.00000000e+00    
           4.89436030e-01     5.24369657e-01     0.00000000e+00    
           4.90943670e-01     5.23235261e-01     0.00000000e+00    
           4.92690891e-01     5.22523046e-01     0.00000000e+00    
           4.96432930e-01     5.22523701e-01     0.00000000e+00    
           4.98180002e-01     5.23235798e-01     0.00000000e+00    
           4.99687493e-01     5.24370134e-01     0.00000000e+00    
           5.00855684e-01     5.25851607e-01     0.00000000e+00    
           5.01607120e-01     5.27582109e-01     0.00000000e+00    
           5.01892149e-01     5.29447079e-01     0.00000000e+00    
           5.01691818e-01     5.31323016e-01     0.00000000e+00    
           5.01019418e-01     5.33085763e-01     0.00000000e+00    
           4.98371124e-01     4.67269689e-01     0.00000000e+00    
           4.96539861e-01     4.68064904e-01     0.00000000e+00    
           4.94562000e-01     4.68336672e-01     0.00000000e+00    
           4.92584139e-01     4.68064904e-01     0.00000000e+00    
           4.90752876e-01     4.67269689e-01     0.00000000e+00    
           5.32269001e-01     4.75995690e-01     0.00000000e+00    
           5.31541944e-01     4.77750987e-01     0.00000000e+00    
           5.30385315e-01     4.79258329e-01     0.00000000e+00    
           5.28877974e-01     4.80414927e-01     0.00000000e+00    
[...]
      <PointData>
        <DataArray type="Float32" Name="Displacement" NumberOfComponents="3">
           1.67117163e-03     2.01193005e-04     0.00000000e+00    
           1.67021248e-03     4.22362325e-04     0.00000000e+00    
           1.83592690e-03     6.20542487e-05     0.00000000e+00    
           1.56483264e-03     7.16039358e-05     0.00000000e+00    
           1.70270912e-03    -1.03657163e-04     0.00000000e+00    
           1.56483264e-03     7.16039358e-05     0.00000000e+00    
           1.83592690e-03     6.20542487e-05     0.00000000e+00    
           2.31302693e-03    -1.59460164e-04     0.00000000e+00    
           2.32114317e-03     1.53856468e-04     0.00000000e+00    
           2.06160708e-03     1.21106325e-07     0.00000000e+00    
          -7.88567704e-05     1.53856468e-04     0.00000000e+00    
          -8.69729629e-05    -1.59460164e-04     0.00000000e+00    
           2.20972858e-03    -1.62392083e-04     0.00000000e+00    
           2.21692258e-03    -1.04192688e-04     0.00000000e+00    
           2.11146893e-03    -1.37383875e-04     0.00000000e+00    
          -1.83077311e-04    -1.04192688e-04     0.00000000e+00    
          -1.90271530e-04    -1.62392083e-04     0.00000000e+00    
           5.17031935e-04    -6.44537504e-05     0.00000000e+00    
           5.14926738e-04     3.67774570e-04     0.00000000e+00    
           1.93222624e-03     2.49948444e-05     0.00000000e+00    
           2.16685701e-03     1.51186186e-05     0.00000000e+00    
           2.05197139e-03     3.19077895e-04     0.00000000e+00    
           2.16685701e-03     1.51186186e-05     0.00000000e+00    
           1.93222624e-03     2.49948444e-05     0.00000000e+00    
           1.86346925e-03    -2.48447992e-04     0.00000000e+00    
           1.85712473e-03     3.98044685e-05     0.00000000e+00    
           2.10869871e-03     2.50031124e-04     0.00000000e+00    
           2.11175159e-03     3.93348659e-04     0.00000000e+00    
           8.34656938e-04    -3.13647397e-05     0.00000000e+00    
           8.30277335e-04     9.49015885e-05     0.00000000e+00    
           7.73736625e-04     2.20375528e-04     0.00000000e+00    
           5.24082803e-04     2.24090400e-04     0.00000000e+00    
           6.56454533e-04    -1.19992510e-04     0.00000000e+00    
           5.24082803e-04     2.24090400e-04     0.00000000e+00    
           7.73736625e-04     2.20375528e-04     0.00000000e+00    
           1.29722839e-03    -1.49722502e-04     0.00000000e+00    
           1.29736611e-03     1.10835346e-04     0.00000000e+00    
           7.03451980e-04    -2.58777203e-04     0.00000000e+00    
           6.94376824e-04    -1.20137179e-06     0.00000000e+00    
           1.31710491e-03     6.51885857e-05     0.00000000e+00    
           1.32523000e-03     3.55037773e-05     0.00000000e+00    
           1.45301234e-03     1.71106512e-05     0.00000000e+00    
           1.45753135e-03     3.00170184e-04     0.00000000e+00    
           1.35457213e-03    -1.79168885e-04     0.00000000e+00    
           1.36255776e-03    -5.80030865e-05     0.00000000e+00    
           1.01382122e-03     1.24571321e-04     0.00000000e+00    
           1.01241027e-03     5.18206449e-04     0.00000000e+00    
           2.40000011e-03     0.00000000e+00     0.00000000e+00    
           0.00000000e+00     0.00000000e+00     0.00000000e+00    
           0.00000000e+00     0.00000000e+00     0.00000000e+00    
           2.40000011e-03     0.00000000e+00     0.00000000e+00    
           1.70685328e-03     2.04990080e-04     0.00000000e+00    
           1.73923187e-03     2.16931483e-04     0.00000000e+00    
           1.76631915e-03     2.34657302e-04     0.00000000e+00    
           1.78648916e-03     2.57061038e-04     0.00000000e+00    
           1.79858389e-03     2.83271685e-04     0.00000000e+00    
           1.80283457e-03     3.10785632e-04     0.00000000e+00    
           1.79816096e-03     3.39752354e-04     0.00000000e+00    
           1.78443722e-03     3.67591099e-04     0.00000000e+00    
           1.76196278e-03     3.91545909e-04     0.00000000e+00    
           1.73446443e-03     4.08429478e-04     0.00000000e+00    
           1.70360634e-03     4.19237913e-04     0.00000000e+00    
           1.63680420e-03     4.17576521e-04     0.00000000e+00    
           1.60573074e-03     4.06218227e-04     0.00000000e+00    
           1.57927908e-03     3.88818444e-04     0.00000000e+00    
           1.55892607e-03     3.67813307e-04     0.00000000e+00    
           1.54622411e-03     3.43205931e-04     0.00000000e+00    
           1.54232106e-03     3.16616002e-04     0.00000000e+00    
           1.54565088e-03     2.90352909e-04     0.00000000e+00    
           1.55496004e-03     2.67053314e-04     0.00000000e+00    
           1.57122675e-03     2.45681498e-04     0.00000000e+00    
           1.59903895e-03     2.22800591e-04     0.00000000e+00    
           1.63426576e-03     2.06898607e-04     0.00000000e+00    
           1.55543245e-03     4.57383394e-05     0.00000000e+00    
           1.55351846e-03     1.72141408e-05     0.00000000e+00    
           1.56029616e-03    -1.30857698e-05     0.00000000e+00    
           1.57647708e-03    -4.25411527e-05     0.00000000e+00    
           1.60063955e-03    -6.84484039e-05     0.00000000e+00    
           1.63095572e-03    -8.79013896e-05     0.00000000e+00    
           1.66564062e-03    -9.95867449e-05     0.00000000e+00    
           1.73904374e-03    -9.96823510e-05     0.00000000e+00    
           1.77168986e-03    -8.78308274e-05     0.00000000e+00    
           1.79948448e-03    -6.97837895e-05     0.00000000e+00    
           1.82077719e-03    -4.64425975e-05     0.00000000e+00    
           1.83574017e-03    -1.98343550e-05     0.00000000e+00    
           1.84361916e-03     7.96584118e-06     0.00000000e+00    
           1.84339925e-03     3.56670353e-05     0.00000000e+00    
           1.81782036e-03     9.06492933e-05     0.00000000e+00    
           1.78858894e-03     1.16822004e-04     0.00000000e+00    
           1.75274280e-03     1.36352872e-04     0.00000000e+00    
           1.71428930e-03     1.45799102e-04     0.00000000e+00    
           1.67524640e-03     1.45280414e-04     0.00000000e+00    
           1.63829664e-03     1.35905604e-04     0.00000000e+00    
           1.60638615e-03     1.18887168e-04     0.00000000e+00    
           1.58198550e-03     9.61640108e-05     0.00000000e+00    
           2.27415538e-03     1.63037432e-04     0.00000000e+00    
           2.22612382e-03     1.62092227e-04     0.00000000e+00    
           2.18027551e-03     1.51455315e-04     0.00000000e+00    
           2.14021117e-03     1.31795168e-04     0.00000000e+00    
           2.10781186e-03     1.04542152e-04     0.00000000e+00    
           2.08333367e-03     7.18590236e-05     0.00000000e+00    
           2.06755754e-03     3.63057006e-05     0.00000000e+00    
           2.06461037e-03    -3.52666575e-05     0.00000000e+00    
           2.07841164e-03    -7.05051862e-05     0.00000000e+00    
           2.10465351e-03    -1.05830928e-04     0.00000000e+00    
           2.14076741e-03    -1.36461560e-04     0.00000000e+00    
           2.18133745e-03    -1.58014518e-04     0.00000000e+00    
           2.22368701e-03    -1.68284620e-04     0.00000000e+00    
           2.26813415e-03    -1.68704937e-04     0.00000000e+00    
          -4.48494466e-05    -1.40864780e-04     0.00000000e+00    
          -8.59436477e-06    -1.14510745e-04     0.00000000e+00    
           1.91704294e-05    -8.15033636e-05     0.00000000e+00    
           3.75138152e-05    -4.57472306e-05     0.00000000e+00    
           4.43773170e-05    -7.20545222e-06     0.00000000e+00    
           4.15306386e-05     3.00901538e-05     0.00000000e+00    
           2.56104959e-05     6.98434524e-05     0.00000000e+00    
          -5.37071003e-07     1.05954939e-04     0.00000000e+00    
          -3.65623200e-05     1.34419766e-04     0.00000000e+00    
           2.20449502e-03    -9.73333663e-05     0.00000000e+00    
           2.18967721e-03    -9.38272788e-05     0.00000000e+00    
           2.17307871e-03    -9.34305644e-05     0.00000000e+00    
           2.15573306e-03    -9.62056583e-05     0.00000000e+00    
           2.13865819e-03    -1.02397396e-04     0.00000000e+00    
           2.12578196e-03    -1.11082889e-04     0.00000000e+00    
           2.11736397e-03    -1.20632081e-04     0.00000000e+00    
           2.11247895e-03    -1.29114836e-04     0.00000000e+00    
           2.11396161e-03    -1.45956903e-04     0.00000000e+00    
           2.12031463e-03    -1.54346752e-04     0.00000000e+00    
           2.12974800e-03    -1.61182106e-04     0.00000000e+00    
           2.14105728e-03    -1.66711296e-04     0.00000000e+00    
           2.15365365e-03    -1.69767911e-04     0.00000000e+00    
           2.16754642e-03    -1.71258318e-04     0.00000000e+00    
           2.18208856e-03    -1.70649015e-04     0.00000000e+00    
           2.19662744e-03    -1.67638296e-04     0.00000000e+00    
          -1.78900649e-04    -1.54184992e-04     0.00000000e+00    
          -1.70935498e-04    -1.44952486e-04     0.00000000e+00    
          -1.66931233e-04    -1.35519309e-04     0.00000000e+00    
          -1.68404353e-04    -1.24909755e-04     0.00000000e+00    
          -1.73012086e-04    -1.14279545e-04     0.00000000e+00    
           5.79289626e-04    -5.68590913e-05     0.00000000e+00    
           6.35356293e-04    -3.40630468e-05     0.00000000e+00    
           6.82062586e-04     5.21878292e-07     0.00000000e+00    
           7.17818795e-04     4.39905816e-05     0.00000000e+00    
           7.41461467e-04     9.35064527e-05     0.00000000e+00    
           7.51154381e-04     1.46422608e-04     0.00000000e+00    
           7.46518606e-04     1.99520640e-04     0.00000000e+00    
           7.24956510e-04     2.51037593e-04     0.00000000e+00    
           6.86433690e-04     2.98525003e-04     0.00000000e+00    
           6.35257165e-04     3.36502038e-04     0.00000000e+00    
           5.76702878e-04     3.60096310e-04     0.00000000e+00    
           4.53039160e-04     3.60920734e-04     0.00000000e+00    
           3.95266543e-04     3.39767197e-04     0.00000000e+00    
           3.45437409e-04     3.05809692e-04     0.00000000e+00    
           3.07356298e-04     2.61176931e-04     0.00000000e+00    
           2.83741450e-04     2.09469115e-04     0.00000000e+00    
           2.75230530e-04     1.54632900e-04     0.00000000e+00    
           2.81351240e-04     9.94354923e-05     0.00000000e+00    
           3.05055844e-04     4.61564050e-05     0.00000000e+00    
           3.42989486e-04     2.80451133e-07     0.00000000e+00    
           3.94019007e-04    -3.51124218e-05     0.00000000e+00    
           4.53750079e-04    -5.73898324e-05     0.00000000e+00    
           2.19923048e-03     4.25789149e-05     0.00000000e+00    
           2.22323113e-03     7.73767679e-05     0.00000000e+00    
           2.23744358e-03     1.18043528e-04     0.00000000e+00    
           2.23887688e-03     1.62287193e-04     0.00000000e+00    
           2.22741137e-03     2.06673489e-04     0.00000000e+00    
           2.20479374e-03     2.46498326e-04     0.00000000e+00    
           2.17295019e-03     2.78747524e-04     0.00000000e+00    
           2.13564234e-03     3.01833934e-04     0.00000000e+00    
           2.09510606e-03     3.15187208e-04     0.00000000e+00    
           2.00678408e-03     3.13721044e-04     0.00000000e+00    
           1.96264987e-03     2.98527186e-04     0.00000000e+00    
           1.92358543e-03     2.74276215e-04     0.00000000e+00    
           1.89284945e-03     2.42682159e-04     0.00000000e+00    
           1.87318469e-03     2.06138138e-04     0.00000000e+00    
           1.86379964e-03     1.67517544e-04     0.00000000e+00    
           1.86436647e-03     1.28944870e-04     0.00000000e+00    
           1.87460845e-03     9.30604074e-05     0.00000000e+00    
           1.89677160e-03     5.77253340e-05     0.00000000e+00    
           1.97002897e-03     2.28478984e-06     0.00000000e+00    
           2.01107818e-03    -1.14214326e-05     0.00000000e+00    
           2.05331482e-03    -1.62855467e-05     0.00000000e+00    
           2.09448300e-03    -1.26905807e-05     0.00000000e+00    
           2.13273359e-03    -1.73391140e-06     0.00000000e+00    
           1.90395978e-03    -2.43853341e-04     0.00000000e+00    
           1.94201223e-03    -2.30563426e-04     0.00000000e+00    
           1.97643531e-03    -2.10237384e-04     0.00000000e+00    
           2.00184388e-03    -1.83926852e-04     0.00000000e+00    
           2.01955973e-03    -1.55111702e-04     0.00000000e+00    
           2.02840404e-03    -1.25672799e-04     0.00000000e+00    
           2.02860567e-03    -9.57258453e-05     0.00000000e+00    
           2.02140724e-03    -6.49167196e-05     0.00000000e+00    
           2.00301595e-03    -3.33057287e-05     0.00000000e+00    
           1.97365298e-03    -2.73318597e-06     0.00000000e+00    
           1.93770218e-03     2.06687491e-05     0.00000000e+00    
           1.89828698e-03     3.46596062e-05     0.00000000e+00    
           1.81718834e-03     3.58121688e-05     0.00000000e+00    
           1.78087875e-03     2.34866511e-05     0.00000000e+00    
           1.74952985e-03     4.98082136e-06     0.00000000e+00    
           1.72408787e-03    -2.01404182e-05     0.00000000e+00    
           1.70565699e-03    -5.02445218e-05     0.00000000e+00    
           1.69522059e-03    -8.31405778e-05     0.00000000e+00    
           1.69492920e-03    -1.17912314e-04     0.00000000e+00    
           1.70558935e-03    -1.52445689e-04     0.00000000e+00    
           1.72505714e-03    -1.84632285e-04     0.00000000e+00    
           1.75263733e-03    -2.11804945e-04     0.00000000e+00    
           1.78605819e-03    -2.31878032e-04     0.00000000e+00    
           1.82348525e-03    -2.44239374e-04     0.00000000e+00    
           2.13508960e-03     2.52898375e-04     0.00000000e+00    
           2.15957570e-03     2.61673878e-04     0.00000000e+00    
           2.17962055e-03     2.75694823e-04     0.00000000e+00    
           2.19295197e-03     2.93919322e-04     0.00000000e+00    
           2.19906983e-03     3.13903496e-04     0.00000000e+00    
           2.19818996e-03     3.34117765e-04     0.00000000e+00    
           2.19024764e-03     3.53474490e-04     0.00000000e+00    
           2.17616674e-03     3.69761052e-04     0.00000000e+00    
           2.15731771e-03     3.82557540e-04     0.00000000e+00    
           2.13562441e-03     3.89929977e-04     0.00000000e+00    
           2.08737468e-03     3.91696696e-04     0.00000000e+00    
           2.06411327e-03     3.85105901e-04     0.00000000e+00    
           2.04386120e-03     3.73403629e-04     0.00000000e+00    
           2.02793395e-03     3.58120655e-04     0.00000000e+00    
           2.01889942e-03     3.38810321e-04     0.00000000e+00    
           2.01802282e-03     3.16933991e-04     0.00000000e+00    
           2.02524941e-03     2.94734578e-04     0.00000000e+00    
           2.04015826e-03     2.74862745e-04     0.00000000e+00    
           2.05962732e-03     2.60749279e-04     0.00000000e+00    
           2.08244217e-03     2.52832018e-04     0.00000000e+00    
           8.56823870e-04    -2.97913994e-05     0.00000000e+00    
           8.76687234e-04    -2.46851741e-05     0.00000000e+00    
           8.93316348e-04    -1.48318177e-05     0.00000000e+00    
           9.06944100e-04    -7.77488879e-07     0.00000000e+00    
           9.14323551e-04     1.59154424e-05     0.00000000e+00    
           9.16566816e-04     3.27870075e-05     0.00000000e+00    
           9.14073724e-04     4.89074446e-05     0.00000000e+00    
           9.05267196e-04     6.47788765e-05     0.00000000e+00    
           8.90971336e-04     7.67787278e-05     0.00000000e+00    
           8.73681623e-04     8.48583950e-05     0.00000000e+00    
           8.52677098e-04     9.20317980e-05     0.00000000e+00    
           8.08050565e-04     9.29565795e-05     0.00000000e+00    
           7.88461475e-04     8.62324305e-05     0.00000000e+00    
           7.72422645e-04     7.58725873e-05     0.00000000e+00    
           7.59960560e-04     6.27856716e-05     0.00000000e+00    
           7.52004038e-04     4.79267037e-05     0.00000000e+00    
           7.48869090e-04     3.22732922e-05     0.00000000e+00    
           7.51768239e-04     1.64761568e-05     0.00000000e+00    
           7.60444789e-04     1.43332397e-06     0.00000000e+00    
           7.74474640e-04    -1.10533429e-05     0.00000000e+00    
           7.91810628e-04    -2.13899038e-05     0.00000000e+00    
           8.12557526e-04    -2.83205736e-05     0.00000000e+00    
           4.87641868e-04     1.93350337e-04     0.00000000e+00    
           4.59574978e-04     1.55417118e-04     0.00000000e+00    
           4.42729011e-04     1.11516885e-04     0.00000000e+00    
           4.38504736e-04     6.42034720e-05     0.00000000e+00    
           4.47728293e-04     1.79122653e-05     0.00000000e+00    
           4.74207045e-04    -2.86652685e-05     0.00000000e+00    
           5.11707971e-04    -6.77908029e-05     0.00000000e+00    
           5.56623330e-04    -9.60304751e-05     0.00000000e+00    
           6.05774811e-04    -1.14097100e-04     0.00000000e+00    
           7.05612591e-04    -1.13873859e-04     0.00000000e+00    
           7.50890118e-04    -9.73802598e-05     0.00000000e+00    
           7.91283732e-04    -7.13376212e-05     0.00000000e+00    
           8.24520364e-04    -3.62655301e-05     0.00000000e+00    
           8.48005235e-04     6.38591155e-06     0.00000000e+00    
           8.58273881e-04     5.31775477e-05     0.00000000e+00    
           8.55349586e-04     1.00855636e-04     0.00000000e+00    
           8.39499407e-04     1.46811639e-04     0.00000000e+00    
           8.11590930e-04     1.87430123e-04     0.00000000e+00    
           7.26911589e-04     2.44366092e-04     0.00000000e+00    
           6.74794777e-04     2.57141393e-04     0.00000000e+00    
           6.20512059e-04     2.58721237e-04     0.00000000e+00    
           5.69148804e-04     2.46750162e-04     0.00000000e+00    
           1.33400527e-03    -1.45069382e-04     0.00000000e+00    
           1.36678037e-03    -1.32595553e-04     0.00000000e+00    
           1.39492436e-03    -1.13438575e-04     0.00000000e+00    
           1.41828146e-03    -8.87304195e-05     0.00000000e+00    
           1.43476250e-03    -5.98580591e-05     0.00000000e+00    
           1.44174497e-03    -2.79510314e-05     0.00000000e+00    
           1.43839652e-03     5.53302743e-06     0.00000000e+00    
           1.42416614e-03     3.87237378e-05     0.00000000e+00    
           1.40077120e-03     6.82056707e-05     0.00000000e+00    
           1.37124618e-03     9.03551772e-05     0.00000000e+00    
           1.33633544e-03     1.04323852e-04     0.00000000e+00    
           1.25741214e-03     1.08217064e-04     0.00000000e+00    
           1.21996424e-03     9.69849571e-05     0.00000000e+00    
           1.18735700e-03     7.71544219e-05     0.00000000e+00    
           1.16261758e-03     4.92836989e-05     0.00000000e+00    
           1.14711805e-03     1.64154899e-05     0.00000000e+00    
           1.14180963e-03    -1.91658019e-05     0.00000000e+00    
           1.14711502e-03    -5.45557014e-05     0.00000000e+00    
           1.16262771e-03    -8.66862902e-05     0.00000000e+00    
           1.18787866e-03    -1.13729882e-04     0.00000000e+00    