<?xml version="1.0"?>
<VTKFile type="UnstructuredGrid" version="0.1">
  <UnstructuredGrid>
    <Piece NumberOfPoints="1034" NumberOfCells="1614">
      <Points>
        <DataArray type="Float32" NumberOfComponents="3">
           5.21582007e-01     5.11657000e-01     0.00000000e+00    
           5.07319987e-01     5.11657000e-01     0.00000000e+00    
           4.65243995e-01     5.17907977e-01     0.00000000e+00    
           4.65243995e-01     5.04921973e-01     0.00000000e+00    
           4.75246996e-01     5.11415005e-01     0.00000000e+00    
           5.33852994e-01     5.04921973e-01     0.00000000e+00    
           5.33852994e-01     5.17907977e-01     0.00000000e+00    
           4.83779997e-01     5.34618974e-01     0.00000000e+00    
           4.68984991e-01     5.34618974e-01     0.00000000e+00    
           4.76381987e-01     5.23841977e-01     0.00000000e+00    
           4.68984991e-01     4.66010004e-01     0.00000000e+00    
           4.83779997e-01     4.66010004e-01     0.00000000e+00    
           4.99920011e-01     5.34618974e-01     0.00000000e+00    
           4.89203990e-01     5.34618974e-01     0.00000000e+00    
           4.94562000e-01     5.22280991e-01     0.00000000e+00    
           4.89203990e-01     4.66010004e-01     0.00000000e+00    
           4.99920011e-01     4.66010004e-01     0.00000000e+00    
           5.32517016e-01     4.74112004e-01     0.00000000e+00    
           5.17961025e-01     4.74112004e-01     0.00000000e+00    
           5.33852994e-01     5.19801974e-01     0.00000000e+00    
           5.33852994e-01     5.29603004e-01     0.00000000e+00    
           5.19536972e-01     5.24702013e-01     0.00000000e+00    
           4.65243995e-01     5.29603004e-01     0.00000000e+00    
           4.65243995e-01     5.19801974e-01     0.00000000e+00    
           4.92487997e-01     5.17117977e-01     0.00000000e+00    
           4.76904988e-01     5.17117977e-01     0.00000000e+00    
           5.17996013e-01     5.27033985e-01     0.00000000e+00    
           5.04473984e-01     5.27033985e-01     0.00000000e+00    
           5.08446991e-01     4.83435005e-01     0.00000000e+00    
           4.94414002e-01     4.83435005e-01     0.00000000e+00    
           4.65243995e-01     4.83101994e-01     0.00000000e+00    
           4.65243995e-01     4.74415004e-01     0.00000000e+00    
           4.78336990e-01     4.78758007e-01     0.00000000e+00    
           5.33852994e-01     4.74415004e-01     0.00000000e+00    
           5.33852994e-01     4.83101994e-01     0.00000000e+00    
           4.80668008e-01     4.95810986e-01     0.00000000e+00    
           4.66084987e-01     4.95810986e-01     0.00000000e+00    
           4.93930012e-01     4.79214013e-01     0.00000000e+00    
           4.78967011e-01     4.79214013e-01     0.00000000e+00    
           5.09284973e-01     4.97658014e-01     0.00000000e+00    
           4.95503992e-01     4.97658014e-01     0.00000000e+00    
           5.33011973e-01     5.01751006e-01     0.00000000e+00    
           5.17829001e-01     5.01751006e-01     0.00000000e+00    
           4.95451003e-01     5.00564992e-01     0.00000000e+00    
           4.80922014e-01     5.00564992e-01     0.00000000e+00    
           5.25367022e-01     4.88312006e-01     0.00000000e+00    
           5.09521008e-01     4.88312006e-01     0.00000000e+00    
           4.65243995e-01     5.34618974e-01     0.00000000e+00    
           4.65243995e-01     4.66010004e-01     0.00000000e+00    
           5.33852994e-01     4.66010004e-01     0.00000000e+00    
           5.33852994e-01     5.34618974e-01     0.00000000e+00    
           5.21338999e-01     5.13502657e-01     0.00000000e+00    
           5.20626605e-01     5.15222490e-01     0.00000000e+00    
           5.19493401e-01     5.16699374e-01     0.00000000e+00    
           5.18016517e-01     5.17832637e-01     0.00000000e+00    
           5.16296625e-01     5.18545032e-01     0.00000000e+00    
           5.14451027e-01     5.18787980e-01     0.00000000e+00    
           5.12605369e-01     5.18545032e-01     0.00000000e+00    
           5.10885477e-01     5.17832637e-01     0.00000000e+00    
           5.09408593e-01     5.16699374e-01     0.00000000e+00    
           5.08275390e-01     5.15222490e-01     0.00000000e+00    
           5.07562995e-01     5.13502657e-01     0.00000000e+00    
           5.07562995e-01     5.09811342e-01     0.00000000e+00    
           5.08275390e-01     5.08091509e-01     0.00000000e+00    
           5.09408593e-01     5.06614625e-01     0.00000000e+00    
           5.10885477e-01     5.05481362e-01     0.00000000e+00    
           5.12605369e-01     5.04768968e-01     0.00000000e+00    
           5.14451027e-01     5.04526019e-01     0.00000000e+00    
           5.16296625e-01     5.04768968e-01     0.00000000e+00    
           5.18016517e-01     5.05481362e-01     0.00000000e+00    
           5.19493401e-01     5.06614625e-01     0.00000000e+00    
           5.20626605e-01     5.08091509e-01     0.00000000e+00    
           5.21338999e-01     5.09811342e-01     0.00000000e+00    
           4.66931671e-01     5.04409373e-01     0.00000000e+00    
           4.68693614e-01     5.04328012e-01     0.00000000e+00    
           4.70421344e-01     5.04682958e-01     0.00000000e+00    
           4.72008497e-01     5.05452335e-01     0.00000000e+00    
           4.73357379e-01     5.06588817e-01     0.00000000e+00    
           4.74384934e-01     5.08022368e-01     0.00000000e+00    
           4.75027919e-01     5.09664834e-01     0.00000000e+00    
           4.75028187e-01     5.13165236e-01     0.00000000e+00    
           4.74385172e-01     5.14807761e-01     0.00000000e+00    
           4.73357558e-01     5.16241372e-01     0.00000000e+00    
           4.72008646e-01     5.17377913e-01     0.00000000e+00    
           4.70421433e-01     5.18147290e-01     0.00000000e+00    
           4.68693614e-01     5.18502235e-01     0.00000000e+00    
           4.66931641e-01     5.18420875e-01     0.00000000e+00    
           5.32303810e-01     5.16964078e-01     0.00000000e+00    
           5.31043947e-01     5.15658796e-01     0.00000000e+00    
           5.30155540e-01     5.14077127e-01     0.00000000e+00    
           5.29696345e-01     5.12322068e-01     0.00000000e+00    
           5.29696345e-01     5.10507941e-01     0.00000000e+00    
           5.30155540e-01     5.08752882e-01     0.00000000e+00    
           5.31043947e-01     5.07171214e-01     0.00000000e+00    
           5.32303810e-01     5.05865932e-01     0.00000000e+00    
           4.68517244e-01     5.32760799e-01     0.00000000e+00    
           4.68509018e-01     5.30844629e-01     0.00000000e+00    
           4.68960851e-01     5.28982460e-01     0.00000000e+00    
           4.69846308e-01     5.27283132e-01     0.00000000e+00    
           4.71113682e-01     5.25845945e-01     0.00000000e+00    
           4.72688884e-01     5.24754822e-01     0.00000000e+00    
           4.74479854e-01     5.24073541e-01     0.00000000e+00    
           4.78284091e-01     5.24073601e-01     0.00000000e+00    
           4.80075032e-01     5.24754822e-01     0.00000000e+00    
           4.81650203e-01     5.25845885e-01     0.00000000e+00    
           4.82917547e-01     5.27283013e-01     0.00000000e+00    
           4.83803004e-01     5.28982282e-01     0.00000000e+00    
           4.84254897e-01     5.30844331e-01     0.00000000e+00    
           4.84246761e-01     5.32760441e-01     0.00000000e+00    
           4.82887864e-01     4.67691004e-01     0.00000000e+00    
           4.81620818e-01     4.69110936e-01     0.00000000e+00    
           4.80051905e-01     4.70188022e-01     0.00000000e+00    
           4.78271484e-01     4.70860153e-01     0.00000000e+00    
           4.76382166e-01     4.71088618e-01     0.00000000e+00    
           4.74492878e-01     4.70860243e-01     0.00000000e+00    
           4.72712427e-01     4.70188200e-01     0.00000000e+00    
           4.71143454e-01     4.69111174e-01     0.00000000e+00    
           4.69876349e-01     4.67691302e-01     0.00000000e+00    
           4.88103986e-01     5.33086061e-01     0.00000000e+00    
           4.87431526e-01     5.31323195e-01     0.00000000e+00    
           4.87231195e-01     5.29447019e-01     0.00000000e+00    
           4.87516224e-01     5.27581930e-01     0.00000000e+00    
           4.88267750e-01     5.25851250e-01     0.00000000e+00    
           4.89436030e-01     5.24369657e-01     0.00000000e+00    
           4.90943670e-01     5.23235261e-01     0.00000000e+00    
           4.92690891e-01     5.22523046e-01     0.00000000e+00    
           4.96432930e-01     5.22523701e-01     0.00000000e+00    
           4.98180002e-01     5.23235798e-01     0.00000000e+00    
           4.99687493e-01     5.24370134e-01     0.00000000e+00    
           5.00855684e-01     5.25851607e-01     0.00000000e+00    
           5.01607120e-01     5.27582109e-01     0.00000000e+00    
           5.01892149e-01     5.29447079e-01     0.00000000e+00    
           5.01691818e-01     5.31323016e-01     0.00000000e+00    
           5.01019418e-01     5.33085763e-01     0.00000000e+00    
           4.98371124e-01     4.67269689e-01     0.00000000e+00    
           4.96539861e-01     4.68064904e-01     0.00000000e+00    
           4.94562000e-01     4.68336672e-01     0.00000000e+00    
           4.92584139e-01     4.68064904e-01     0.00000000e+00    
           4.90752876e-01     4.67269689e-01     0.00000000e+00    
           5.32269001e-01     4.75995690e-01     0.00000000e+00    
           5.31541944e-01     4.77750987e-01     0.00000000e+00    
           5.30385315e-01     4.79258329e-01     0.00000000e+00    
           5.28877974e-01     4.80414927e-01     0.00000000e+00    
[...]
      <PointData>
        <DataArray type="Float32" Name="Displacement" NumberOfComponents="3">
           1.63133649e-04     4.70073064e-06     0.00000000e+00    
           1.62963610e-04     2.79420674e-05     0.00000000e+00    
           1.79321840e-04    -1.81762778e-06     0.00000000e+00    
           1.50381020e-04    -1.53345138e-06     0.00000000e+00    
           1.65406789e-04    -1.46716802e-05     0.00000000e+00    
           1.50381020e-04    -1.53345138e-06     0.00000000e+00    
           1.79321840e-04    -1.81762778e-06     0.00000000e+00    
           2.45035859e-04    -1.53375531e-05     0.00000000e+00    
           2.45391129e-04     1.77520542e-05     0.00000000e+00    
           2.14795611e-04     2.10390522e-06     0.00000000e+00    
          -4.60886986e-06     1.77520542e-05     0.00000000e+00    
          -4.96415350e-06    -1.53375531e-05     0.00000000e+00    
           2.31589336e-04    -1.49938878e-05     0.00000000e+00    
           2.32956474e-04    -4.22841640e-06     0.00000000e+00    
           2.12884042e-04    -1.11269073e-05     0.00000000e+00    
          -1.70435233e-05    -4.22841640e-06     0.00000000e+00    
          -1.84106666e-05    -1.49938878e-05     0.00000000e+00    
           4.21195182e-05    -2.98153532e-06     0.00000000e+00    
           4.09674940e-05     2.39523779e-05     0.00000000e+00    
           1.97456626e-04    -4.59678631e-06     0.00000000e+00    
           2.24401330e-04    -4.92205118e-06     0.00000000e+00    
           2.11401115e-04     2.44815947e-05     0.00000000e+00    
           2.24401330e-04    -4.92205118e-06     0.00000000e+00    
           1.97456626e-04    -4.59678631e-06     0.00000000e+00    
           1.86903941e-04    -2.04456665e-05     0.00000000e+00    
           1.84924022e-04     1.11615245e-05     0.00000000e+00    
           2.18103931e-04     1.04360251e-05     0.00000000e+00    
           2.18809102e-04     2.17818324e-05     0.00000000e+00    
           7.72035055e-05    -2.75023422e-06     0.00000000e+00    
           7.39546958e-05     9.88769898e-06     0.00000000e+00    
           6.00411295e-05     1.36914168e-05     0.00000000e+00    
           4.25483013e-05     1.29729151e-05     0.00000000e+00    
           5.29971257e-05    -5.94490666e-06     0.00000000e+00    
           4.25483013e-05     1.29729151e-05     0.00000000e+00    
           6.00411295e-05     1.36914168e-05     0.00000000e+00    
           1.18936878e-04    -1.31441939e-05     0.00000000e+00    
           1.18820477e-04     7.98688870e-06     0.00000000e+00    
           6.00447274e-05    -1.08620534e-05     0.00000000e+00    
           5.63094545e-05     3.72722661e-06     0.00000000e+00    
           1.16406503e-04    -1.54530426e-07     0.00000000e+00    
           1.18804070e-04     7.13725240e-06     0.00000000e+00    
           1.36439005e-04    -9.04481294e-06     0.00000000e+00    
           1.36783216e-04     1.87598016e-05     0.00000000e+00    
           1.22437807e-04    -5.40203609e-06     0.00000000e+00    
           1.23951060e-04    -2.13771074e-07     0.00000000e+00    
           9.12751420e-05     1.36127323e-06     0.00000000e+00    
           9.06432833e-05     2.85727165e-05     0.00000000e+00    
           2.50000012e-04     0.00000000e+00     0.00000000e+00    
           0.00000000e+00     0.00000000e+00     0.00000000e+00    
           0.00000000e+00     0.00000000e+00     0.00000000e+00    
           2.50000012e-04     0.00000000e+00     0.00000000e+00    
           1.67752703e-04     5.11092321e-06     0.00000000e+00    
           1.71940555e-04     6.51576238e-06     0.00000000e+00    
           1.75412919e-04     8.41741166e-06     0.00000000e+00    
           1.77931448e-04     1.06185553e-05     0.00000000e+00    
           1.79451323e-04     1.31672205e-05     0.00000000e+00    
           1.80087751e-04     1.59296233e-05     0.00000000e+00    
           1.79570008e-04     1.90468054e-05     0.00000000e+00    
           1.77738286e-04     2.22130257e-05     0.00000000e+00    
           1.74800982e-04     2.49128807e-05     0.00000000e+00    
           1.71243417e-04     2.67408614e-05     0.00000000e+00    
           1.67219201e-04     2.77721574e-05     0.00000000e+00    
           1.58724259e-04     2.71744211e-05     0.00000000e+00    
           1.54803289e-04     2.56892890e-05     0.00000000e+00    
           1.51563348e-04     2.36731448e-05     0.00000000e+00    
           1.49234504e-04     2.14324882e-05     0.00000000e+00    
           1.48001171e-04     1.90088813e-05     0.00000000e+00    
           1.47779356e-04     1.65770398e-05     0.00000000e+00    
           1.48215608e-04     1.43086054e-05     0.00000000e+00    
           1.49105035e-04     1.24157677e-05     0.00000000e+00    
           1.50546446e-04     1.06921052e-05     0.00000000e+00    
           1.53824934e-04     7.74646651e-06     0.00000000e+00    
           1.58348805e-04     5.52803203e-06     0.00000000e+00    
           1.49839310e-04    -2.80587847e-06     0.00000000e+00    
           1.49732950e-04    -4.64684308e-06     0.00000000e+00    
           1.50401480e-04    -7.01171120e-06     0.00000000e+00    
           1.52106732e-04    -9.55653741e-06     0.00000000e+00    
           1.54625333e-04    -1.18921234e-05     0.00000000e+00    
           1.57818387e-04    -1.35929522e-05     0.00000000e+00    
           1.61471820e-04    -1.44960140e-05     0.00000000e+00    
           1.69132967e-04    -1.42163253e-05     0.00000000e+00    
           1.72291024e-04    -1.33318890e-05     0.00000000e+00    
           1.74944667e-04    -1.20476543e-05     0.00000000e+00    
           1.76976391e-04    -1.02988524e-05     0.00000000e+00    
           1.78546659e-04    -8.22563288e-06     0.00000000e+00    
           1.79530398e-04    -6.09779954e-06     0.00000000e+00    
           1.79752198e-04    -3.95874576e-06     0.00000000e+00    
           1.77550304e-04     8.56646523e-07     0.00000000e+00    
           1.74270725e-04     3.42569865e-06     0.00000000e+00    
           1.70168511e-04     5.31839532e-06     0.00000000e+00    
           1.65791673e-04     6.06086314e-06     0.00000000e+00    
           1.61270989e-04     5.65687060e-06     0.00000000e+00    
           1.56908747e-04     4.11517703e-06     0.00000000e+00    
           1.52993191e-04     1.50911137e-06     0.00000000e+00    
           1.51224580e-04    -4.10204990e-07     0.00000000e+00    
           2.39481175e-04     1.85306963e-05     0.00000000e+00    
           2.33627070e-04     1.81914147e-05     0.00000000e+00    
           2.28281744e-04     1.69539908e-05     0.00000000e+00    
           2.23787021e-04     1.49914295e-05     0.00000000e+00    
           2.20219648e-04     1.22802776e-05     0.00000000e+00    
           2.17441207e-04     9.02854754e-06     0.00000000e+00    
           2.15559165e-04     5.54386725e-06     0.00000000e+00    
           2.14938729e-04    -1.21831397e-06     0.00000000e+00    
           2.16370143e-04    -4.81461711e-06     0.00000000e+00    
           2.19410445e-04    -8.80333118e-06     0.00000000e+00    
           2.23725190e-04    -1.25116367e-05     0.00000000e+00    
           2.28634584e-04    -1.51091235e-05     0.00000000e+00    
           2.33834580e-04    -1.63723471e-05     0.00000000e+00    
           2.39368164e-04    -1.64314515e-05     0.00000000e+00    
           4.18612132e-07    -1.31168654e-05     0.00000000e+00    
           5.01330851e-06    -1.00605594e-05     0.00000000e+00    
           8.43995895e-06    -6.59211810e-06     0.00000000e+00    
           1.05715208e-05    -3.13266241e-06     0.00000000e+00    
           1.13748720e-05     5.10835264e-07     0.00000000e+00    
           1.11119743e-05     4.17146521e-06     0.00000000e+00    
           9.03081127e-06     8.46224611e-06     0.00000000e+00    
           5.40215842e-06     1.25609940e-05     0.00000000e+00    
           7.10895563e-07     1.57453360e-05     0.00000000e+00    
           2.30567544e-04    -3.00980787e-06     0.00000000e+00    
           2.27803088e-04    -2.37432073e-06     0.00000000e+00    
           2.24684525e-04    -2.32773232e-06     0.00000000e+00    
           2.21276787e-04    -2.91175684e-06     0.00000000e+00    
           2.17659632e-04    -4.40755639e-06     0.00000000e+00    
           2.14695872e-04    -6.61598506e-06     0.00000000e+00    
           2.13077452e-04    -8.59831835e-06     0.00000000e+00    
           2.12611325e-04    -9.95157916e-06     0.00000000e+00    
           2.13609688e-04    -1.23730670e-05     0.00000000e+00    
           2.14837302e-04    -1.35524524e-05     0.00000000e+00    
           2.16563989e-04    -1.45290496e-05     0.00000000e+00    
           2.18587942e-04    -1.52907251e-05     0.00000000e+00    
           2.20762158e-04    -1.57085888e-05     0.00000000e+00    
           2.23210998e-04    -1.59752963e-05     0.00000000e+00    
           2.25902942e-04    -1.60873860e-05     0.00000000e+00    
           2.28831472e-04    -1.58135608e-05     0.00000000e+00    
          -1.60159307e-05    -1.35920272e-05     0.00000000e+00    
          -1.42925992e-05    -1.18457683e-05     0.00000000e+00    
          -1.34435404e-05    -9.97196275e-06     0.00000000e+00    
          -1.36769368e-05    -7.94737934e-06     0.00000000e+00    
          -1.49566031e-05    -5.97701455e-06     0.00000000e+00    
           4.65524754e-05    -2.10308644e-06     0.00000000e+00    
           5.01322102e-05    -8.87096519e-07     0.00000000e+00    
           5.31322512e-05     3.62869400e-07     0.00000000e+00    
           5.58193096e-05     2.38154689e-06     0.00000000e+00    
           5.79097396e-05     5.01275872e-06     0.00000000e+00    
           5.91330972e-05     8.00225098e-06     0.00000000e+00    
           5.94254743e-05     1.12035623e-05     0.00000000e+00    
           5.81390959e-05     1.46770199e-05     0.00000000e+00    
           5.50857003e-05     1.83722841e-05     0.00000000e+00    
           5.08347257e-05     2.14594274e-05     0.00000000e+00    
           4.60105875e-05     2.33506307e-05     0.00000000e+00    
           3.59884907e-05     2.35145380e-05     0.00000000e+00    
           3.13643141e-05     2.20863476e-05     0.00000000e+00    
           2.74468894e-05     1.98571306e-05     0.00000000e+00    
           2.45212577e-05     1.69677005e-05     0.00000000e+00    
           2.27670444e-05     1.36013150e-05     0.00000000e+00    
           2.22137842e-05     9.90446915e-06     0.00000000e+00    
           2.29920661e-05     6.01111469e-06     0.00000000e+00    
           2.51839519e-05     2.37368999e-06     0.00000000e+00    
           2.83860081e-05    -4.82535427e-07     0.00000000e+00    
           3.24872199e-05    -2.38019447e-06     0.00000000e+00    
           3.72441173e-05    -3.27302291e-06     0.00000000e+00    
           2.27757948e-04    -2.37166546e-06     0.00000000e+00    
           2.30308666e-04     8.81866015e-07     0.00000000e+00    
           2.31953614e-04     4.73172622e-06     0.00000000e+00    
           2.32218212e-04     9.06229434e-06     0.00000000e+00    
           2.30872552e-04     1.35662649e-05     0.00000000e+00    
           2.28232442e-04     1.75982696e-05     0.00000000e+00    
           2.24636082e-04     2.07628564e-05     0.00000000e+00    
           2.20518632e-04     2.29709822e-05     0.00000000e+00    
           2.16139786e-04     2.41624239e-05     0.00000000e+00    
           2.06256242e-04     2.38745342e-05     0.00000000e+00    
           2.01111092e-04     2.22160015e-05     0.00000000e+00    
           1.96605222e-04     1.97069257e-05     0.00000000e+00    
           1.93209999e-04     1.66539066e-05     0.00000000e+00    
           1.91138068e-04     1.31858669e-05     0.00000000e+00    
           1.90085077e-04     9.55503492e-06     0.00000000e+00    
           1.89987244e-04     5.86529814e-06     0.00000000e+00    
           1.90824983e-04     2.36222081e-06     0.00000000e+00    
           1.93215164e-04    -1.19025219e-06     0.00000000e+00    
           2.02036594e-04    -6.93507036e-06     0.00000000e+00    
           2.06975688e-04    -8.17529053e-06     0.00000000e+00    
           2.11948209e-04    -8.38870983e-06     0.00000000e+00    
           2.16639339e-04    -7.71970554e-06     0.00000000e+00    
           2.20818794e-04    -6.48939113e-06     0.00000000e+00    
           1.92198597e-04    -1.96914552e-05     0.00000000e+00    
           1.97317888e-04    -1.76955582e-05     0.00000000e+00    
           2.01896386e-04    -1.48913168e-05     0.00000000e+00    
           2.04845754e-04    -1.18303851e-05     0.00000000e+00    
           2.06502285e-04    -9.17291982e-06     0.00000000e+00    
           2.07087505e-04    -6.62809816e-06     0.00000000e+00    
           2.07010831e-04    -3.89311435e-06     0.00000000e+00    
           2.06260171e-04    -8.18258684e-07     0.00000000e+00    
           2.03967982e-04     2.66073948e-06     0.00000000e+00    
           2.00150083e-04     6.32227193e-06     0.00000000e+00    
           1.95370565e-04     9.13254280e-06     0.00000000e+00    
           1.90218736e-04     1.06857979e-05     0.00000000e+00    
           1.79971612e-04     1.06548805e-05     0.00000000e+00    
           1.75744470e-04     9.41805138e-06     0.00000000e+00    
           1.72176078e-04     7.83619089e-06     0.00000000e+00    
           1.69130741e-04     5.43781971e-06     0.00000000e+00    
           1.66732105e-04     2.41859175e-06     0.00000000e+00    
           1.65115271e-04    -1.01067474e-06     0.00000000e+00    
           1.64775236e-04    -4.84407701e-06     0.00000000e+00    
           1.66002603e-04    -8.84633209e-06     0.00000000e+00    
           1.68604936e-04    -1.27487474e-05     0.00000000e+00    
           1.72269851e-04    -1.61053085e-05     0.00000000e+00    
           1.76694681e-04    -1.85556892e-05     0.00000000e+00    
           1.81650743e-04    -2.00361446e-05     0.00000000e+00    
           2.20970032e-04     1.06752113e-05     0.00000000e+00    
           2.23750598e-04     1.14578979e-05     0.00000000e+00    
           2.26057600e-04     1.27157591e-05     0.00000000e+00    
           2.27551252e-04     1.42864983e-05     0.00000000e+00    
           2.28125224e-04     1.59694373e-05     0.00000000e+00    
           2.27830984e-04     1.76454996e-05     0.00000000e+00    
           2.26790318e-04     1.91559047e-05     0.00000000e+00    
           2.25180629e-04     2.03592426e-05     0.00000000e+00    
           2.23165465e-04     2.11908700e-05     0.00000000e+00    
           2.21087379e-04     2.14979100e-05     0.00000000e+00    
           2.16351284e-04     2.20020484e-05     0.00000000e+00    
           2.13758773e-04     2.18398600e-05     0.00000000e+00    
           2.11397302e-04     2.11939514e-05     0.00000000e+00    
           2.09430349e-04     2.02052397e-05     0.00000000e+00    
           2.08163794e-04     1.86243105e-05     0.00000000e+00    
           2.07876292e-04     1.65891415e-05     0.00000000e+00    
           2.08816040e-04     1.42822091e-05     0.00000000e+00    
           2.10725120e-04     1.23260470e-05     0.00000000e+00    
           2.12904793e-04     1.11431000e-05     0.00000000e+00    
           2.15308930e-04     1.06240441e-05     0.00000000e+00    
           8.02880095e-05    -2.38043481e-06     0.00000000e+00    
           8.28035700e-05    -2.22023959e-06     0.00000000e+00    
           8.49797143e-05    -1.81115774e-06     0.00000000e+00    
           8.72494711e-05    -5.85243811e-07     0.00000000e+00    
           8.90970769e-05     1.57039017e-06     0.00000000e+00    
           8.96636702e-05     3.81695008e-06     0.00000000e+00    
           8.86709313e-05     5.86555916e-06     0.00000000e+00    
           8.66567789e-05     7.71716896e-06     0.00000000e+00    
           8.40419307e-05     8.93357083e-06     0.00000000e+00    
           8.10028796e-05     9.75037801e-06     0.00000000e+00    
           7.75077642e-05     1.01689075e-05     0.00000000e+00    
           7.08706139e-05     9.29558701e-06     0.00000000e+00    
           6.87388674e-05     8.64512549e-06     0.00000000e+00    
           6.73236937e-05     7.92825085e-06     0.00000000e+00    
           6.60459555e-05     6.77067510e-06     0.00000000e+00    
           6.50985530e-05     5.26581107e-06     0.00000000e+00    
           6.46828485e-05     3.55697534e-06     0.00000000e+00    
           6.51680093e-05     1.76987919e-06     0.00000000e+00    
           6.64408144e-05     6.74532785e-08     0.00000000e+00    
           6.84759652e-05    -1.30954982e-06     0.00000000e+00    
           7.10695240e-05    -2.34157778e-06     0.00000000e+00    
           7.40886026e-05    -2.82394581e-06     0.00000000e+00    
           4.01755678e-05     1.20099085e-05     0.00000000e+00    
           3.79894554e-05     1.05894660e-05     0.00000000e+00    
           3.64057996e-05     8.59149532e-06     0.00000000e+00    
           3.55443699e-05     6.13075872e-06     0.00000000e+00    
           3.59491314e-05     3.25008546e-06     0.00000000e+00    
           3.81927821e-05    -1.65141117e-07     0.00000000e+00    
           4.15379400e-05    -3.06189099e-06     0.00000000e+00    
           4.54120855e-05    -4.95403401e-06     0.00000000e+00    
           4.93303050e-05    -5.82293706e-06     0.00000000e+00    
           5.61459638e-05    -5.76130788e-06     0.00000000e+00    
           5.89803349e-05    -5.23420795e-06     0.00000000e+00    
           6.17565602e-05    -3.99902910e-06     0.00000000e+00    
           6.42281157e-05    -2.06516734e-06     0.00000000e+00    
           6.61327358e-05     6.05783782e-07     0.00000000e+00    
           6.68781649e-05     3.63517324e-06     0.00000000e+00    
           6.65307816e-05     6.67989616e-06     0.00000000e+00    
           6.51888913e-05     9.52859682e-06     0.00000000e+00    
           6.29602146e-05     1.19121214e-05     0.00000000e+00    
           5.64444053e-05     1.48514910e-05     0.00000000e+00    
           5.25549185e-05     1.49721418e-05     0.00000000e+00    
           4.87245379e-05     1.45015947e-05     0.00000000e+00    
           4.53447319e-05     1.35707733e-05     0.00000000e+00    
           1.22200043e-04    -1.25510896e-05     0.00000000e+00    
           1.24954677e-04    -1.17502350e-05     0.00000000e+00    
           1.27457737e-04    -1.05114550e-05     0.00000000e+00    
           1.29715321e-04    -8.74751731e-06     0.00000000e+00    
           1.31419918e-04    -6.66423466e-06     0.00000000e+00    
           1.32240661e-04    -4.27616942e-06     0.00000000e+00    
           1.32075918e-04    -1.60727006e-06     0.00000000e+00    
           1.30798682e-04     1.26381133e-06     0.00000000e+00    
           1.28600223e-04     3.93256414e-06     0.00000000e+00    
           1.25852413e-04     5.92950164e-06     0.00000000e+00    
           1.22560887e-04     7.23603944e-06     0.00000000e+00    
           1.14925693e-04     7.94521384e-06     0.00000000e+00    
           1.11239708e-04     7.13699274e-06     0.00000000e+00    
           1.07964544e-04     5.54383769e-06     0.00000000e+00    
           1.05396393e-04     3.18718639e-06     0.00000000e+00    
           1.03696839e-04     3.15278129e-07     0.00000000e+00    
           1.03137892e-04    -2.84465523e-06     0.00000000e+00    
           1.03790226e-04    -5.93026652e-06     0.00000000e+00    
           1.05493818e-04    -8.56712541e-06     0.00000000e+00    
           1.08109067e-04    -1.07426558e-05     0.00000000e+00    