<?xml version="1.0"?>
<VTKFile type="UnstructuredGrid" version="0.1">
  <UnstructuredGrid>
    <Piece NumberOfPoints="1034" NumberOfCells="1614">
      <Points>
        <DataArray type="Float32" NumberOfComponents="3">
           5.21582007e-01     5.11657000e-01     0.00000000e+00    
           5.07319987e-01     5.11657000e-01     0.00000000e+00    
           4.65243995e-01     5.17907977e-01     0.00000000e+00    
           4.65243995e-01     5.04921973e-01     0.00000000e+00    
           4.75246996e-01     5.11415005e-01     0.00000000e+00    
           5.33852994e-01     5.04921973e-01     0.00000000e+00    
           5.33852994e-01     5.17907977e-01     0.00000000e+00    
           4.83779997e-01     5.34618974e-01     0.00000000e+00    
           4.68984991e-01     5.34618974e-01     0.00000000e+00    
           4.76381987e-01     5.23841977e-01     0.00000000e+00    
           4.68984991e-01     4.66010004e-01     0.00000000e+00    
           4.83779997e-01     4.66010004e-01     0.00000000e+00    
           4.99920011e-01     5.34618974e-01     0.00000000e+00    
           4.89203990e-01     5.34618974e-01     0.00000000e+00    
           4.94562000e-01     5.22280991e-01     0.00000000e+00    
           4.89203990e-01     4.66010004e-01     0.00000000e+00    
           4.99920011e-01     4.66010004e-01     0.00000000e+00    
           5.32517016e-01     4.74112004e-01     0.00000000e+00    
           5.17961025e-01     4.74112004e-01     0.00000000e+00    
           5.33852994e-01     5.19801974e-01     0.00000000e+00    
           5.33852994e-01     5.29603004e-01     0.00000000e+00    
           5.19536972e-01     5.24702013e-01     0.00000000e+00    
           4.65243995e-01     5.29603004e-01     0.00000000e+00    
           4.65243995e-01     5.19801974e-01     0.00000000e+00    
           4.92487997e-01     5.17117977e-01     0.00000000e+00    
           4.76904988e-01     5.17117977e-01     0.00000000e+00    
           5.17996013e-01     5.27033985e-01     0.00000000e+00    
           5.04473984e-01     5.27033985e-01     0.00000000e+00    
           5.08446991e-01     4.83435005e-01     0.00000000e+00    
           4.94414002e-01     4.83435005e-01     0.00000000e+00    
           4.65243995e-01     4.83101994e-01     0.00000000e+00    
           4.65243995e-01     4.74415004e-01     0.00000000e+00    
           4.78336990e-01     4.78758007e-01     0.00000000e+00    
           5.33852994e-01     4.74415004e-01     0.00000000e+00    
           5.33852994e-01     4.83101994e-01     0.00000000e+00    
           4.80668008e-01     4.95810986e-01     0.00000000e+00    
           4.66084987e-01     4.95810986e-01     0.00000000e+00    
           4.93930012e-01     4.79214013e-01     0.00000000e+00    
           4.78967011e-01     4.79214013e-01     0.00000000e+00    
           5.09284973e-01     4.97658014e-01     0.00000000e+00    
           4.95503992e-01     4.97658014e-01     0.00000000e+00    
           5.33011973e-01     5.01751006e-01     0.00000000e+00    
           5.17829001e-01     5.01751006e-01     0.00000000e+00    
           4.95451003e-01     5.00564992e-01     0.00000000e+00    
           4.80922014e-01     5.00564992e-01     0.00000000e+00    
           5.25367022e-01     4.88312006e-01     0.00000000e+00    
           5.09521008e-01     4.88312006e-01     0.00000000e+00    
           4.65243995e-01     5.34618974e-01     0.00000000e+00    
           4.65243995e-01     4.66010004e-01     0.00000000e+00    
           5.33852994e-01     4.66010004e-01     0.00000000e+00    
           5.33852994e-01     5.34618974e-01     0.00000000e+00    
           5.21338999e-01     5.13502657e-01     0.00000000e+00    
           5.20626605e-01     5.15222490e-01     0.00000000e+00    
           5.19493401e-01     5.16699374e-01     0.00000000e+00    
           5.18016517e-01     5.17832637e-01     0.00000000e+00    
           5.16296625e-01     5.18545032e-01     0.00000000e+00    
           5.14451027e-01     5.18787980e-01     0.00000000e+00    
           5.12605369e-01     5.18545032e-01     0.00000000e+00    
           5.10885477e-01     5.17832637e-01     0.00000000e+00    
           5.09408593e-01     5.16699374e-01     0.00000000e+00    
           5.08275390e-01     5.15222490e-01     0.00000000e+00    
           5.07562995e-01     5.13502657e-01     0.00000000e+00    
           5.07562995e-01     5.09811342e-01     0.00000000e+00    
           5.08275390e-01     5.08091509e-01     0.00000000e+00    
           5.09408593e-01     5.06614625e-01     0.00000000e+00    
           5.10885477e-01     5.05481362e-01     0.00000000e+00    
           5.12605369e-01     5.04768968e-01     0.00000000e+00    
           5.14451027e-01     5.04526019e-01     0.00000000e+00    
           5.16296625e-01     5.04768968e-01     0.00000000e+00    
           5.18016517e-01     5.05481362e-01     0.00000000e+00    
           5.19493401e-01     5.06614625e-01     0.00000000e+00    
           5.20626605e-01     5.08091509e-01     0.00000000e+00    
           5.21338999e-01     5.09811342e-01     0.00000000e+00    
           4.66931671e-01     5.04409373e-01     0.00000000e+00    
           4.68693614e-01     5.04328012e-01     0.00000000e+00    
           4.70421344e-01     5.04682958e-01     0.00000000e+00    
           4.72008497e-01     5.05452335e-01     0.00000000e+00    
           4.73357379e-01     5.06588817e-01     0.00000000e+00    
           4.74384934e-01     5.08022368e-01     0.00000000e+00    
           4.75027919e-01     5.09664834e-01     0.00000000e+00    
           4.75028187e-01     5.13165236e-01     0.00000000e+00    
           4.74385172e-01     5.14807761e-01     0.00000000e+00    
           4.73357558e-01     5.16241372e-01     0.00000000e+00    
           4.72008646e-01     5.17377913e-01     0.00000000e+00    
           4.70421433e-01     5.18147290e-01     0.00000000e+00    
           4.68693614e-01     5.18502235e-01     0.00000000e+00    
           4.66931641e-01     5.18420875e-01     0.00000000e+00    
           5.32303810e-01     5.16964078e-01     0.00000000e+00    
           5.31043947e-01     5.15658796e-01     0.00000000e+00    
           5.30155540e-01     5.14077127e-01     0.00000000e+00    
           5.29696345e-01     5.12322068e-01     0.00000000e+00    
           5.29696345e-01     5.10507941e-01     0.00000000e+00    
           5.30155540e-01     5.08752882e-01     0.00000000e+00    
           5.31043947e-01     5.07171214e-01     0.00000000e+00    
           5.32303810e-01     5.05865932e-01     0.00000000e+00    
           4.68517244e-01     5.32760799e-01     0.00000000e+00    
           4.68509018e-01     5.30844629e-01     0.00000000e+00    
           4.68960851e-01     5.28982460e-01     0.00000000e+00    
           4.69846308e-01     5.27283132e-01     0.00000000e+00    
           4.71113682e-01     5.25845945e-01     0.00000000e+00    
           4.72688884e-01     5.24754822e-01     0.00000000e+00    
           4.74479854e-01     5.24073541e-01     0.00000000e+00    
           4.78284091e-01     5.24073601e-01     0.00000000e+00    
           4.80075032e-01     5.24754822e-01     0.00000000e+00    
           4.81650203e-01     5.25845885e-01     0.00000000e+00    
           4.82917547e-01     5.27283013e-01     0.00000000e+00    
           4.83803004e-01     5.28982282e-01     0.00000000e+00    
           4.84254897e-01     5.30844331e-01     0.00000000e+00    
           4.84246761e-01     5.32760441e-01     0.00000000e+00    
           4.82887864e-01     4.67691004e-01     0.00000000e+00    
           4.81620818e-01     4.69110936e-01     0.00000000e+00    
           4.80051905e-01     4.70188022e-01     0.00000000e+00    
           4.78271484e-01     4.70860153e-01     0.00000000e+00    
           4.76382166e-01     4.71088618e-01     0.00000000e+00    
           4.74492878e-01     4.70860243e-01     0.00000000e+00    
           4.72712427e-01     4.70188200e-01     0.00000000e+00    
           4.71143454e-01     4.69111174e-01     0.00000000e+00    
           4.69876349e-01     4.67691302e-01     0.00000000e+00    
           4.88103986e-01     5.33086061e-01     0.00000000e+00    
           4.87431526e-01     5.31323195e-01     0.00000000e+00    
           4.87231195e-01     5.29447019e-01     0.00000000e+00    
           4.87516224e-01     5.27581930e-01     0.00000000e+00    
           4.88267750e-01     5.25851250e-01     0.00000000e+00    
           4.89436030e-01     5.24369657e-01     0.00000000e+00    
           4.90943670e-01     5.23235261e-01     0.00000000e+00    
           4.92690891e-01     5.22523046e-01     0.00000000e+00    
           4.96432930e-01     5.22523701e-01     0.00000000e+00    
           4.98180002e-01     5.23235798e-01     0.00000000e+00    
           4.99687493e-01     5.24370134e-01     0.00000000e+00    
           5.00855684e-01     5.25851607e-01     0.00000000e+00    
           5.01607120e-01     5.27582109e-01     0.00000000e+00    
           5.01892149e-01     5.29447079e-01     0.00000000e+00    
           5.01691818e-01     5.31323016e-01     0.00000000e+00    
           5.01019418e-01     5.33085763e-01     0.00000000e+00    
           4.98371124e-01     4.67269689e-01     0.00000000e+00    
           4.96539861e-01     4.68064904e-01     0.00000000e+00    
           4.94562000e-01     4.68336672e-01     0.00000000e+00    
           4.92584139e-01     4.68064904e-01     0.00000000e+00    
           4.90752876e-01     4.67269689e-01     0.00000000e+00    
           5.32269001e-01     4.75995690e-01     0.00000000e+00    
           5.31541944e-01     4.77750987e-01     0.00000000e+00    
           5.30385315e-01     4.79258329e-01     0.00000000e+00    
           5.28877974e-01     4.80414927e-01     0.00000000e+00    
[...]
      <PointData>
        <DataArray type="Float32" Name="Displacement" NumberOfComponents="3">
           1.59722706e-03     1.86899750e-04     0.00000000e+00    
           1.59637944e-03     3.96522490e-04     0.00000000e+00    
           1.75519893e-03     5.84491900e-05     0.00000000e+00    
           1.49617612e-03     6.78063952e-05     0.00000000e+00    
           1.62795151e-03    -9.82407655e-05     0.00000000e+00    
           1.49617612e-03     6.78063952e-05     0.00000000e+00    
           1.75519893e-03     5.84491900e-05     0.00000000e+00    
           2.21554190e-03    -1.47787447e-04     0.00000000e+00    
           2.22333893e-03     1.51146087e-04     0.00000000e+00    
           1.97455287e-03     4.64875757e-06     0.00000000e+00    
          -7.66611556e-05     1.51146087e-04     0.00000000e+00    
          -8.44580791e-05    -1.47787447e-04     0.00000000e+00    
           2.11612112e-03    -1.47869316e-04     0.00000000e+00    
           2.12309114e-03    -9.19654340e-05     0.00000000e+00    
           2.02060840e-03    -1.24033439e-04     0.00000000e+00    
          -1.76908914e-04    -9.19654340e-05     0.00000000e+00    
          -1.83878918e-04    -1.47869316e-04     0.00000000e+00    
           4.87105572e-04    -6.38240817e-05     0.00000000e+00    
           4.84853692e-04     3.48368601e-04     0.00000000e+00    
           1.84959476e-03     2.21246337e-05     0.00000000e+00    
           2.07465561e-03     1.25260203e-05     0.00000000e+00    
           1.96453463e-03     3.02485278e-04     0.00000000e+00    
           2.07465561e-03     1.25260203e-05     0.00000000e+00    
           1.84959476e-03     2.21246337e-05     0.00000000e+00    
           1.78260356e-03    -2.30811682e-04     0.00000000e+00    
           1.77633157e-03     4.46264567e-05     0.00000000e+00    
           2.01922888e-03     2.33079059e-04     0.00000000e+00    
           2.02231971e-03     3.68187117e-04     0.00000000e+00    
           7.93399231e-04    -2.49631103e-05     0.00000000e+00    
           7.88857404e-04     9.72637936e-05     0.00000000e+00    
           7.32026121e-04     2.12872750e-04     0.00000000e+00    
           4.93459695e-04     2.16428045e-04     0.00000000e+00    
           6.20243663e-04    -1.10946581e-04     0.00000000e+00    
           4.93459695e-04     2.16428045e-04     0.00000000e+00    
           7.32026121e-04     2.12872750e-04     0.00000000e+00    
           1.23808731e-03    -1.39900323e-04     0.00000000e+00    
           1.23826426e-03     1.07323263e-04     0.00000000e+00    
           6.65994361e-04    -2.39246176e-04     0.00000000e+00    
           6.56898133e-04     5.01551176e-06     0.00000000e+00    
           1.25575881e-03     6.80596277e-05     0.00000000e+00    
           1.26395607e-03     4.01789366e-05     0.00000000e+00    
           1.38804014e-03     1.35099363e-05     0.00000000e+00    
           1.39248406e-03     2.82374502e-04     0.00000000e+00    
           1.29192567e-03    -1.61845121e-04     0.00000000e+00    
           1.29977195e-03    -4.94401684e-05     0.00000000e+00    
           9.64573468e-04     1.14689334e-04     0.00000000e+00    
           9.63113795e-04     4.90225910e-04     0.00000000e+00    
           2.30000005e-03     0.00000000e+00     0.00000000e+00    
           0.00000000e+00     0.00000000e+00     0.00000000e+00    
           0.00000000e+00     0.00000000e+00     0.00000000e+00    
           2.30000005e-03     0.00000000e+00     0.00000000e+00    
           1.63138879e-03     1.90495193e-04     0.00000000e+00    
           1.66236737e-03     2.01856034e-04     0.00000000e+00    
           1.68826815e-03     2.18674788e-04     0.00000000e+00    
           1.70754013e-03     2.39893459e-04     0.00000000e+00    
           1.71908818e-03     2.64724484e-04     0.00000000e+00    
           1.72316155e-03     2.90779833e-04     0.00000000e+00    
           1.71871681e-03     3.18260776e-04     0.00000000e+00    
           1.70558877e-03     3.44712869e-04     0.00000000e+00    
           1.68405776e-03     3.67463217e-04     0.00000000e+00    
           1.65775430e-03     3.83431674e-04     0.00000000e+00    
           1.62828376e-03     3.93597526e-04     0.00000000e+00    
           1.56443659e-03     3.91949812e-04     0.00000000e+00    
           1.53471902e-03     3.81169462e-04     0.00000000e+00    
           1.50944339e-03     3.64678126e-04     0.00000000e+00    
           1.49002532e-03     3.44800559e-04     0.00000000e+00    
           1.47793628e-03     3.21525877e-04     0.00000000e+00    
           1.47426745e-03     2.96423241e-04     0.00000000e+00    
           1.47742801e-03     2.71658471e-04     0.00000000e+00    
           1.48618559e-03     2.49749370e-04     0.00000000e+00    
           1.50151993e-03     2.29609956e-04     0.00000000e+00    
           1.52807555e-03     2.07700316e-04     0.00000000e+00    
           1.56185485e-03     1.92402396e-04     0.00000000e+00    
           1.48726534e-03     4.34709655e-05     0.00000000e+00    
           1.48544065e-03     1.65453766e-05     0.00000000e+00    
           1.49189995e-03    -1.21742896e-05     0.00000000e+00    
           1.50736712e-03    -4.01651887e-05     0.00000000e+00    
           1.53046206e-03    -6.48176720e-05     0.00000000e+00    
           1.55942526e-03    -8.33087834e-05     0.00000000e+00    
           1.59254903e-03    -9.43878549e-05     0.00000000e+00    
           1.66263117e-03    -9.44632484e-05     0.00000000e+00    
           1.69374922e-03    -8.32246078e-05     0.00000000e+00    
           1.72022998e-03    -6.61354861e-05     0.00000000e+00    
           1.74049998e-03    -4.40343829e-05     0.00000000e+00    
           1.75477518e-03    -1.88610447e-05     0.00000000e+00    
           1.76234159e-03     7.39553025e-06     0.00000000e+00    
           1.76220713e-03     3.35396217e-05     0.00000000e+00    
           1.73796073e-03     8.56324332e-05     0.00000000e+00    
           1.70995819e-03     1.10615365e-04     0.00000000e+00    
           1.67560310e-03     1.29285763e-04     0.00000000e+00    
           1.63879129e-03     1.38284173e-04     0.00000000e+00    
           1.60143548e-03     1.37747411e-04     0.00000000e+00    
           1.56610110e-03     1.28769927e-04     0.00000000e+00    
           1.53564243e-03     1.12551243e-04     0.00000000e+00    
           1.51244586e-03     9.09687733e-05     0.00000000e+00    
           2.17822008e-03     1.59870193e-04     0.00000000e+00    
           2.13212543e-03     1.58921510e-04     0.00000000e+00    
           2.08816631e-03     1.48737978e-04     0.00000000e+00    
           2.04980467e-03     1.29974054e-04     0.00000000e+00    
           2.01882026e-03     1.03987135e-04     0.00000000e+00    
           1.99540146e-03     7.28490340e-05     0.00000000e+00    
           1.98028213e-03     3.90231216e-05     0.00000000e+00    
           1.97734474e-03    -2.89496929e-05     0.00000000e+00    
           1.99049292e-03    -6.24984532e-05     0.00000000e+00    
           2.01563770e-03    -9.62914783e-05     0.00000000e+00    
           2.05029990e-03    -1.25678227e-04     0.00000000e+00    
           2.08922219e-03    -1.46353952e-04     0.00000000e+00    
           2.12983438e-03    -1.56196780e-04     0.00000000e+00    
           2.17246334e-03    -1.56608352e-04     0.00000000e+00    
          -4.40236072e-05    -1.30024622e-04     0.00000000e+00    
          -9.23681728e-06    -1.04860039e-04     0.00000000e+00    
           1.74005945e-05    -7.33860215e-05     0.00000000e+00    
           3.50343144e-05    -3.93980336e-05     0.00000000e+00    
           4.16474759e-05    -2.74815557e-06     0.00000000e+00    
           3.89800771e-05     3.27250527e-05     0.00000000e+00    
           2.36842643e-05     7.07346626e-05     0.00000000e+00    
          -1.46722698e-06     1.05340616e-04     0.00000000e+00    
          -3.60741797e-05     1.32585163e-04     0.00000000e+00    
           2.11101118e-03    -8.53466554e-05     0.00000000e+00    
           2.09663995e-03    -8.19805282e-05     0.00000000e+00    
           2.08053598e-03    -8.16161992e-05     0.00000000e+00    
           2.06367183e-03    -8.43207672e-05     0.00000000e+00    
           2.04700534e-03    -9.03728287e-05     0.00000000e+00    
           2.03444017e-03    -9.88133615e-05     0.00000000e+00    
           2.02627038e-03    -1.08039218e-04     0.00000000e+00    
           2.02155043e-03    -1.16159157e-04     0.00000000e+00    
           2.02305196e-03    -1.32194196e-04     0.00000000e+00    
           2.02922989e-03    -1.40168719e-04     0.00000000e+00    
           2.03838246e-03    -1.46656108e-04     0.00000000e+00    
           2.04933900e-03    -1.51910484e-04     0.00000000e+00    
           2.06153886e-03    -1.54834532e-04     0.00000000e+00    
           2.07504956e-03    -1.56287759e-04     0.00000000e+00    
           2.08919728e-03    -1.55739035e-04     0.00000000e+00    
           2.10335664e-03    -1.52875713e-04     0.00000000e+00    
          -1.72800253e-04    -1.39994576e-04     0.00000000e+00    
          -1.65050689e-04    -1.31143825e-04     0.00000000e+00    
          -1.61142831e-04    -1.22121855e-04     0.00000000e+00    
          -1.62571087e-04    -1.11943475e-04     0.00000000e+00    
          -1.67079721e-04    -1.01699348e-04     0.00000000e+00    
           5.46688330e-04    -5.65712617e-05     0.00000000e+00    
           6.00279542e-04    -3.47996356e-05     0.00000000e+00    
           6.44871674e-04    -1.84579994e-06     0.00000000e+00    
           6.79015589e-04     3.95056741e-05     0.00000000e+00    
           7.01642944e-04     8.65963884e-05     0.00000000e+00    
           7.10984052e-04     1.36936142e-04     0.00000000e+00    
           7.06668652e-04     1.87480618e-04     0.00000000e+00    
           6.86116109e-04     2.36611508e-04     0.00000000e+00    
           6.49209425e-04     2.82058958e-04     0.00000000e+00    
           6.00139436e-04     3.18442821e-04     0.00000000e+00    
           5.44024282e-04     3.41036066e-04     0.00000000e+00    
           4.25579667e-04     3.41843173e-04     0.00000000e+00    
           3.70257098e-04     3.21673899e-04     0.00000000e+00    
           3.22565233e-04     2.89314426e-04     0.00000000e+00    
           2.86123890e-04     2.46771961e-04     0.00000000e+00    
           2.63555528e-04     1.97497182e-04     0.00000000e+00    
           2.55425839e-04     1.45228842e-04     0.00000000e+00    
           2.61283043e-04     9.25496934e-05     0.00000000e+00    
           2.84007372e-04     4.16656694e-05     0.00000000e+00    
           3.20406310e-04    -2.13747603e-06     0.00000000e+00    
           3.69303103e-04    -3.58812795e-05     0.00000000e+00    
           4.26507468e-04    -5.71253076e-05     0.00000000e+00    
           2.10564537e-03     3.86557913e-05     0.00000000e+00    
           2.12864112e-03     7.17796138e-05     0.00000000e+00    
           2.14229152e-03     1.10542904e-04     0.00000000e+00    
           2.14367802e-03     1.52800538e-04     0.00000000e+00    
           2.13263347e-03     1.95240500e-04     0.00000000e+00    
           2.11090059e-03     2.33322251e-04     0.00000000e+00    
           2.08034553e-03     2.64120288e-04     0.00000000e+00    
           2.04460812e-03     2.86120368e-04     0.00000000e+00    
           2.00582808e-03     2.98803236e-04     0.00000000e+00    
           1.92122476e-03     2.97365157e-04     0.00000000e+00    
           1.87888532e-03     2.82857247e-04     0.00000000e+00    
           1.84141553e-03     2.59708933e-04     0.00000000e+00    
           1.81196176e-03     2.29582249e-04     0.00000000e+00    
           1.79314578e-03     1.94754903e-04     0.00000000e+00    
           1.78414688e-03     1.57988281e-04     0.00000000e+00    
           1.78463268e-03     1.21288285e-04     0.00000000e+00    
           1.79433578e-03     8.71726661e-05     0.00000000e+00    
           1.81552372e-03     5.34651554e-05     0.00000000e+00    
           1.88592600e-03     3.50203067e-07     0.00000000e+00    
           1.92534912e-03    -1.27650801e-05     0.00000000e+00    
           1.96588179e-03    -1.74055949e-05     0.00000000e+00    
           2.00535404e-03    -1.39577933e-05     0.00000000e+00    
           2.04199250e-03    -3.50300002e-06     0.00000000e+00    
           1.82155683e-03    -2.26376753e-04     0.00000000e+00    
           1.85816351e-03    -2.13601874e-04     0.00000000e+00    
           1.89127505e-03    -1.94130291e-04     0.00000000e+00    
           1.91563799e-03    -1.68970291e-04     0.00000000e+00    
           1.93260796e-03    -1.41523866e-04     0.00000000e+00    
           1.94103457e-03    -1.13575137e-04     0.00000000e+00    
           1.94122805e-03    -8.51337827e-05     0.00000000e+00    
           1.93438190e-03    -5.57929525e-05     0.00000000e+00    
           1.91672589e-03    -2.55709474e-05     0.00000000e+00    
           1.88844861e-03     3.78442837e-06     0.00000000e+00    
           1.85382622e-03     2.62658359e-05     0.00000000e+00    
           1.81590952e-03     3.96845317e-05     0.00000000e+00    
           1.73796981e-03     4.08140295e-05     0.00000000e+00    
           1.70313707e-03     2.90409025e-05     0.00000000e+00    
           1.67307642e-03     1.14190425e-05     0.00000000e+00    
           1.64865993e-03    -1.25270944e-05     0.00000000e+00    
           1.63093011e-03    -4.12482077e-05     0.00000000e+00    
           1.62083702e-03    -7.26527433e-05     0.00000000e+00    
           1.62051455e-03    -1.05880623e-04     0.00000000e+00    
           1.63073407e-03    -1.38906922e-04     0.00000000e+00    
           1.64944376e-03    -1.69728781e-04     0.00000000e+00    
           1.67596608e-03    -1.95762390e-04     0.00000000e+00    
           1.70812977e-03    -2.14984597e-04     0.00000000e+00    
           1.74413924e-03    -2.26803997e-04     0.00000000e+00    
           2.04439159e-03     2.35778687e-04     0.00000000e+00    
           2.06777942e-03     2.44056748e-04     0.00000000e+00    
           2.08693929e-03     2.57295731e-04     0.00000000e+00    
           2.09967140e-03     2.74514197e-04     0.00000000e+00    
           2.10548611e-03     2.93377903e-04     0.00000000e+00    
           2.10462650e-03     3.12456017e-04     0.00000000e+00    
           2.09700572e-03     3.30739858e-04     0.00000000e+00    
           2.08353461e-03     3.46086890e-04     0.00000000e+00    
           2.06558569e-03     3.58074176e-04     0.00000000e+00    
           2.04499392e-03     3.64963926e-04     0.00000000e+00    
           1.99913210e-03     3.66677239e-04     0.00000000e+00    
           1.97695708e-03     3.60553357e-04     0.00000000e+00    
           1.95760187e-03     3.49599664e-04     0.00000000e+00    
           1.94232631e-03     3.35262215e-04     0.00000000e+00    
           1.93363708e-03     3.17039929e-04     0.00000000e+00    
           1.93277746e-03     2.96327315e-04     0.00000000e+00    
           1.93969579e-03     2.75258732e-04     0.00000000e+00    
           1.95397669e-03     2.56417785e-04     0.00000000e+00    
           1.97253120e-03     2.43107032e-04     0.00000000e+00    
           1.99422520e-03     2.35697633e-04     0.00000000e+00    
           8.15021747e-04    -2.34441850e-05     0.00000000e+00    
           8.34365725e-04    -1.85147583e-05     0.00000000e+00    
           8.50544486e-04    -8.95096491e-06     0.00000000e+00    
           8.63802154e-04     4.67989321e-06     0.00000000e+00    
           8.70959135e-04     2.08634574e-05     0.00000000e+00    
           8.73124052e-04     3.71890055e-05     0.00000000e+00    
           8.70687945e-04     5.27684206e-05     0.00000000e+00    
           8.62080604e-04     6.81355377e-05     0.00000000e+00    
           8.48107156e-04     7.97196408e-05     0.00000000e+00    
           8.31214886e-04     8.75359037e-05     0.00000000e+00    
           8.10700760e-04     9.44896528e-05     0.00000000e+00    
           7.67215621e-04     9.53706694e-05     0.00000000e+00    
           7.48167688e-04     8.88476425e-05     0.00000000e+00    
           7.32599932e-04     7.88038087e-05     0.00000000e+00    
           7.20514159e-04     6.61560771e-05     0.00000000e+00    
           7.12782959e-04     5.17980334e-05     0.00000000e+00    
           7.09724321e-04     3.66517343e-05     0.00000000e+00    
           7.12552981e-04     2.13552685e-05     0.00000000e+00    
           7.21008808e-04     6.79113236e-06     0.00000000e+00    
           7.34687492e-04    -5.29216413e-06     0.00000000e+00    
           7.51611136e-04    -1.53073379e-05     0.00000000e+00    
           7.71844643e-04    -2.20155616e-05     0.00000000e+00    
           4.58691531e-04     1.87248734e-04     0.00000000e+00    
           4.31864755e-04     1.51288332e-04     0.00000000e+00    
           4.15714312e-04     1.09619476e-04     0.00000000e+00    
           4.11630026e-04     6.46788831e-05     0.00000000e+00    
           4.20415570e-04     2.06587556e-05     0.00000000e+00    
           4.45852376e-04    -2.38061693e-05     0.00000000e+00    
           4.81830823e-04    -6.11803916e-05     0.00000000e+00    
           5.24848117e-04    -8.80998268e-05     0.00000000e+00    
           5.71841141e-04    -1.05321604e-04     0.00000000e+00    
           6.67146058e-04    -1.05138701e-04     0.00000000e+00    
           7.10310997e-04    -8.95059638e-05     0.00000000e+00    
           7.48856401e-04    -6.47974593e-05     0.00000000e+00    
           7.80621602e-04    -3.14575809e-05     0.00000000e+00    
           8.03092786e-04     9.14950306e-06     0.00000000e+00    
           8.12901533e-04     5.37108099e-05     0.00000000e+00    
           8.10090452e-04     9.91228153e-05     0.00000000e+00    
           7.94917403e-04     1.42890829e-04     0.00000000e+00    
           7.68214755e-04     1.81549083e-04     0.00000000e+00    
           6.87269785e-04     2.35682877e-04     0.00000000e+00    
           6.37456309e-04     2.47826421e-04     0.00000000e+00    
           5.85544622e-04     2.49373697e-04     0.00000000e+00    
           5.36466541e-04     2.37978325e-04     0.00000000e+00    
           1.27313565e-03    -1.35462542e-04     0.00000000e+00    
           1.30432739e-03    -1.23654143e-04     0.00000000e+00    
           1.33110932e-03    -1.05544459e-04     0.00000000e+00    
           1.35339296e-03    -8.21841822e-05     0.00000000e+00    
           1.36916770e-03    -5.48917960e-05     0.00000000e+00    
           1.37589069e-03    -2.46964828e-05     0.00000000e+00    
           1.37275236e-03     7.05803814e-06     0.00000000e+00    
           1.35919359e-03     3.86179672e-05     0.00000000e+00    
           1.33687910e-03     6.66937558e-05     0.00000000e+00    
           1.30875187e-03     8.77670318e-05     0.00000000e+00    
           1.27547304e-03     1.01058999e-04     0.00000000e+00    
           1.20007456e-03     1.04912353e-04     0.00000000e+00    
           1.16426998e-03     9.43192645e-05     0.00000000e+00    
           1.13307987e-03     7.55393921e-05     0.00000000e+00    
           1.10941113e-03     4.90674065e-05     0.00000000e+00    
           1.09457597e-03     1.78215942e-05     0.00000000e+00    
           1.08949130e-03    -1.60119471e-05     0.00000000e+00    
           1.09456107e-03    -4.96597422e-05     0.00000000e+00    
           1.10940752e-03    -8.01755596e-05     0.00000000e+00    
           1.13356893e-03    -1.05834086e-04     0.00000000e+00    