<?xml version="1.0"?>
<VTKFile type="UnstructuredGrid" version="0.1">
  <UnstructuredGrid>
    <Piece NumberOfPoints="1034" NumberOfCells="1614">
      <Points>
        <DataArray type="Float32" NumberOfComponents="3">
           5.21582007e-01     5.11657000e-01     0.00000000e+00    
           5.07319987e-01     5.11657000e-01     0.00000000e+00    
           4.65243995e-01     5.17907977e-01     0.00000000e+00    
           4.65243995e-01     5.04921973e-01     0.00000000e+00    
           4.75246996e-01     5.11415005e-01     0.00000000e+00    
           5.33852994e-01     5.04921973e-01     0.00000000e+00    
           5.33852994e-01     5.17907977e-01     0.00000000e+00    
           4.83779997e-01     5.34618974e-01     0.00000000e+00    
           4.68984991e-01     5.34618974e-01     0.00000000e+00    
           4.76381987e-01     5.23841977e-01     0.00000000e+00    
           4.68984991e-01     4.66010004e-01     0.00000000e+00    
           4.83779997e-01     4.66010004e-01     0.00000000e+00    
           4.99920011e-01     5.34618974e-01     0.00000000e+00    
           4.89203990e-01     5.34618974e-01     0.00000000e+00    
           4.94562000e-01     5.22280991e-01     0.00000000e+00    
           4.89203990e-01     4.66010004e-01     0.00000000e+00    
           4.99920011e-01     4.66010004e-01     0.00000000e+00    
           5.32517016e-01     4.74112004e-01     0.00000000e+00    
           5.17961025e-01     4.74112004e-01     0.00000000e+00    
           5.33852994e-01     5.19801974e-01     0.00000000e+00    
           5.33852994e-01     5.29603004e-01     0.00000000e+00    
           5.19536972e-01     5.24702013e-01     0.00000000e+00    
           4.65243995e-01     5.29603004e-01     0.00000000e+00    
           4.65243995e-01     5.19801974e-01     0.00000000e+00    
           4.92487997e-01     5.17117977e-01     0.00000000e+00    
           4.76904988e-01     5.17117977e-01     0.00000000e+00    
           5.17996013e-01     5.27033985e-01     0.00000000e+00    
           5.04473984e-01     5.27033985e-01     0.00000000e+00    
           5.08446991e-01     4.83435005e-01     0.00000000e+00    
           4.94414002e-01     4.83435005e-01     0.00000000e+00    
           4.65243995e-01     4.83101994e-01     0.00000000e+00    
           4.65243995e-01     4.74415004e-01     0.00000000e+00    
           4.78336990e-01     4.78758007e-01     0.00000000e+00    
           5.33852994e-01     4.74415004e-01     0.00000000e+00    
           5.33852994e-01     4.83101994e-01     0.00000000e+00    
           4.80668008e-01     4.95810986e-01     0.00000000e+00    
           4.66084987e-01     4.95810986e-01     0.00000000e+00    
           4.93930012e-01     4.79214013e-01     0.00000000e+00    
           4.78967011e-01     4.79214013e-01     0.00000000e+00    
           5.09284973e-01     4.97658014e-01     0.00000000e+00    
           4.95503992e-01     4.97658014e-01     0.00000000e+00    
           5.33011973e-01     5.01751006e-01     0.00000000e+00    
           5.17829001e-01     5.01751006e-01     0.00000000e+00    
           4.95451003e-01     5.00564992e-01     0.00000000e+00    
           4.80922014e-01     5.00564992e-01     0.00000000e+00    
           5.25367022e-01     4.88312006e-01     0.00000000e+00    
           5.09521008e-01     4.88312006e-01     0.00000000e+00    
           4.65243995e-01     5.34618974e-01     0.00000000e+00    
           4.65243995e-01     4.66010004e-01     0.00000000e+00    
           5.33852994e-01     4.66010004e-01     0.00000000e+00    
           5.33852994e-01     5.34618974e-01     0.00000000e+00    
           5.21338999e-01     5.13502657e-01     0.00000000e+00    
           5.20626605e-01     5.15222490e-01     0.00000000e+00    
           5.19493401e-01     5.16699374e-01     0.00000000e+00    
           5.18016517e-01     5.17832637e-01     0.00000000e+00    
           5.16296625e-01     5.18545032e-01     0.00000000e+00    
           5.14451027e-01     5.18787980e-01     0.00000000e+00    
           5.12605369e-01     5.18545032e-01     0.00000000e+00    
           5.10885477e-01     5.17832637e-01     0.00000000e+00    
           5.09408593e-01     5.16699374e-01     0.00000000e+00    
           5.08275390e-01     5.15222490e-01     0.00000000e+00    
           5.07562995e-01     5.13502657e-01     0.00000000e+00    
           5.07562995e-01     5.09811342e-01     0.00000000e+00    
           5.08275390e-01     5.08091509e-01     0.00000000e+00    
           5.09408593e-01     5.06614625e-01     0.00000000e+00    
           5.10885477e-01     5.05481362e-01     0.00000000e+00    
           5.12605369e-01     5.04768968e-01     0.00000000e+00    
           5.14451027e-01     5.04526019e-01     0.00000000e+00    
           5.16296625e-01     5.04768968e-01     0.00000000e+00    
           5.18016517e-01     5.05481362e-01     0.00000000e+00    
           5.19493401e-01     5.06614625e-01     0.00000000e+00    
           5.20626605e-01     5.08091509e-01     0.00000000e+00    
           5.21338999e-01     5.09811342e-01     0.00000000e+00    
           4.66931671e-01     5.04409373e-01     0.00000000e+00    
           4.68693614e-01     5.04328012e-01     0.00000000e+00    
           4.70421344e-01     5.04682958e-01     0.00000000e+00    
           4.72008497e-01     5.05452335e-01     0.00000000e+00    
           4.73357379e-01     5.06588817e-01     0.00000000e+00    
           4.74384934e-01     5.08022368e-01     0.00000000e+00    
           4.75027919e-01     5.09664834e-01     0.00000000e+00    
           4.75028187e-01     5.13165236e-01     0.00000000e+00    
           4.74385172e-01     5.14807761e-01     0.00000000e+00    
           4.73357558e-01     5.16241372e-01     0.00000000e+00    
           4.72008646e-01     5.17377913e-01     0.00000000e+00    
           4.70421433e-01     5.18147290e-01     0.00000000e+00    
           4.68693614e-01     5.18502235e-01     0.00000000e+00    
           4.66931641e-01     5.18420875e-01     0.00000000e+00    
           5.32303810e-01     5.16964078e-01     0.00000000e+00    
           5.31043947e-01     5.15658796e-01     0.00000000e+00    
           5.30155540e-01     5.14077127e-01     0.00000000e+00    
           5.29696345e-01     5.12322068e-01     0.00000000e+00    
           5.29696345e-01     5.10507941e-01     0.00000000e+00    
           5.30155540e-01     5.08752882e-01     0.00000000e+00    
           5.31043947e-01     5.07171214e-01     0.00000000e+00    
           5.32303810e-01     5.05865932e-01     0.00000000e+00    
           4.68517244e-01     5.32760799e-01     0.00000000e+00    
           4.68509018e-01     5.30844629e-01     0.00000000e+00    
           4.68960851e-01     5.28982460e-01     0.00000000e+00    
           4.69846308e-01     5.27283132e-01     0.00000000e+00    
           4.71113682e-01     5.25845945e-01     0.00000000e+00    
           4.72688884e-01     5.24754822e-01     0.00000000e+00    
           4.74479854e-01     5.24073541e-01     0.00000000e+00    
           4.78284091e-01     5.24073601e-01     0.00000000e+00    
           4.80075032e-01     5.24754822e-01     0.00000000e+00    
           4.81650203e-01     5.25845885e-01     0.00000000e+00    
           4.82917547e-01     5.27283013e-01     0.00000000e+00    
           4.83803004e-01     5.28982282e-01     0.00000000e+00    
           4.84254897e-01     5.30844331e-01     0.00000000e+00    
           4.84246761e-01     5.32760441e-01     0.00000000e+00    
           4.82887864e-01     4.67691004e-01     0.00000000e+00    
           4.81620818e-01     4.69110936e-01     0.00000000e+00    
           4.80051905e-01     4.70188022e-01     0.00000000e+00    
           4.78271484e-01     4.70860153e-01     0.00000000e+00    
           4.76382166e-01     4.71088618e-01     0.00000000e+00    
           4.74492878e-01     4.70860243e-01     0.00000000e+00    
           4.72712427e-01     4.70188200e-01     0.00000000e+00    
           4.71143454e-01     4.69111174e-01     0.00000000e+00    
           4.69876349e-01     4.67691302e-01     0.00000000e+00    
           4.88103986e-01     5.33086061e-01     0.00000000e+00    
           4.87431526e-01     5.31323195e-01     0.00000000e+00    
           4.87231195e-01     5.29447019e-01     0.00000000e+00    
           4.87516224e-01     5.27581930e-01     0.00000000e+00    
           4.88267750e-01     5.25851250e-01     0.00000000e+00    
           4.89436030e-01     5.24369657e-01     0.00000000e+00    
           4.90943670e-01     5.23235261e-01     0.00000000e+00    
           4.92690891e-01     5.22523046e-01     0.00000000e+00    
           4.96432930e-01     5.22523701e-01     0.00000000e+00    
           4.98180002e-01     5.23235798e-01     0.00000000e+00    
           4.99687493e-01     5.24370134e-01     0.00000000e+00    
           5.00855684e-01     5.25851607e-01     0.00000000e+00    
           5.01607120e-01     5.27582109e-01     0.00000000e+00    
           5.01892149e-01     5.29447079e-01     0.00000000e+00    
           5.01691818e-01     5.31323016e-01     0.00000000e+00    
           5.01019418e-01     5.33085763e-01     0.00000000e+00    
           4.98371124e-01     4.67269689e-01     0.00000000e+00    
           4.96539861e-01     4.68064904e-01     0.00000000e+00    
           4.94562000e-01     4.68336672e-01     0.00000000e+00    
           4.92584139e-01     4.68064904e-01     0.00000000e+00    
           4.90752876e-01     4.67269689e-01     0.00000000e+00    
           5.32269001e-01     4.75995690e-01     0.00000000e+00    
           5.31541944e-01     4.77750987e-01     0.00000000e+00    
           5.30385315e-01     4.79258329e-01     0.00000000e+00    
           5.28877974e-01     4.80414927e-01     0.00000000e+00    
[...]
      <PointData>
        <DataArray type="Float32" Name="Displacement" NumberOfComponents="3">
           3.27876682e-04     9.64964875e-06     0.00000000e+00    
           3.27590446e-04     5.63379654e-05     0.00000000e+00    
           3.60706676e-04    -2.54436054e-06     0.00000000e+00    
           3.02387722e-04    -1.60185402e-06     0.00000000e+00    
           3.32420546e-04    -2.94130259e-05     0.00000000e+00    
           3.02387722e-04    -1.60185402e-06     0.00000000e+00    
           3.60706676e-04    -2.54436054e-06     0.00000000e+00    
           4.89455997e-04    -3.03374763e-05     0.00000000e+00    
           4.90337901e-04     3.54917029e-05     0.00000000e+00    
           4.29795648e-04     4.30998944e-06     0.00000000e+00    
          -9.66207062e-06     3.54917029e-05     0.00000000e+00    
          -1.05439985e-05    -3.03374763e-05     0.00000000e+00    
           4.63503704e-04    -2.86986979e-05     0.00000000e+00    
           4.66094149e-04    -8.30534100e-06     0.00000000e+00    
           4.27707215e-04    -2.13287058e-05     0.00000000e+00    
          -3.39058643e-05    -8.30534100e-06     0.00000000e+00    
          -3.64962871e-05    -2.86986979e-05     0.00000000e+00    
           8.35350875e-05    -7.62810305e-06     0.00000000e+00    
           8.15283129e-05     4.87230718e-05     0.00000000e+00    
           3.95683979e-04    -8.85010013e-06     0.00000000e+00    
           4.49175655e-04    -9.79007746e-06     0.00000000e+00    
           4.23383579e-04     4.91715618e-05     0.00000000e+00    
           4.49175655e-04    -9.79007746e-06     0.00000000e+00    
           3.95683979e-04    -8.85010013e-06     0.00000000e+00    
           3.74832569e-04    -4.12113586e-05     0.00000000e+00    
           3.71248781e-04     2.28175850e-05     0.00000000e+00    
           4.36669245e-04     2.12701016e-05     0.00000000e+00    
           4.38116898e-04     4.38741044e-05     0.00000000e+00    
           1.53072004e-04    -6.17824890e-06     0.00000000e+00    
           1.47524028e-04     2.03828149e-05     0.00000000e+00    
           1.20793491e-04     2.96577000e-05     0.00000000e+00    
           8.36626496e-05     2.85101414e-05     0.00000000e+00    
           1.05437699e-04    -1.30158669e-05     0.00000000e+00    
           8.36626496e-05     2.85101414e-05     0.00000000e+00    
           1.20793491e-04     2.96577000e-05     0.00000000e+00    
           2.39374669e-04    -2.68054409e-05     0.00000000e+00    
           2.39336907e-04     1.66356949e-05     0.00000000e+00    
           1.18873737e-04    -2.46485724e-05     0.00000000e+00    
           1.12262540e-04     7.95979940e-06     0.00000000e+00    
           2.34839448e-04     1.62116464e-06     0.00000000e+00    
           2.39481102e-04     1.28122238e-05     0.00000000e+00    
           2.75161437e-04    -1.72584114e-05     0.00000000e+00    
           2.75949569e-04     3.69060581e-05     0.00000000e+00    
           2.46694341e-04    -1.25828756e-05     0.00000000e+00    
           2.49723671e-04    -3.23762066e-07     0.00000000e+00    
           1.82147240e-04     3.45292733e-06     0.00000000e+00    
           1.81185373e-04     5.93445657e-05     0.00000000e+00    
           5.00000024e-04     0.00000000e+00     0.00000000e+00    
           0.00000000e+00     0.00000000e+00     0.00000000e+00    
           0.00000000e+00     0.00000000e+00     0.00000000e+00    
           5.00000024e-04     0.00000000e+00     0.00000000e+00    
           3.36995698e-04     1.04552355e-05     0.00000000e+00    
           3.45235923e-04     1.31785446e-05     0.00000000e+00    
           3.52112431e-04     1.69603227e-05     0.00000000e+00    
           3.57170211e-04     2.14202573e-05     0.00000000e+00    
           3.60267761e-04     2.66132247e-05     0.00000000e+00    
           3.61572165e-04     3.22009400e-05     0.00000000e+00    
           3.60553764e-04     3.84685591e-05     0.00000000e+00    
           3.56909557e-04     4.48159735e-05     0.00000000e+00    
           3.51069582e-04     5.02196854e-05     0.00000000e+00    
           3.43998574e-04     5.38814820e-05     0.00000000e+00    
           3.36012454e-04     5.59554537e-05     0.00000000e+00    
           3.19227169e-04     5.49039542e-05     0.00000000e+00    
           3.11471522e-04     5.20798203e-05     0.00000000e+00    
           3.05034075e-04     4.81142706e-05     0.00000000e+00    
           3.00352549e-04     4.35816582e-05     0.00000000e+00    
           2.97802995e-04     3.85956482e-05     0.00000000e+00    
           2.97303399e-04     3.35564182e-05     0.00000000e+00    
           2.98179395e-04     2.88686606e-05     0.00000000e+00    
           2.99977924e-04     2.49650093e-05     0.00000000e+00    
           3.02867935e-04     2.14585434e-05     0.00000000e+00    
           3.09385854e-04     1.56436690e-05     0.00000000e+00    
           3.18382750e-04     1.12735515e-05     0.00000000e+00    
           3.01147549e-04    -4.52503900e-06     0.00000000e+00    
           3.00910790e-04    -8.49573189e-06     0.00000000e+00    
           3.02269851e-04    -1.34481843e-05     0.00000000e+00    
           3.05712980e-04    -1.87112728e-05     0.00000000e+00    
           3.10805888e-04    -2.35151856e-05     0.00000000e+00    
           3.17231112e-04    -2.70196033e-05     0.00000000e+00    
           3.24564928e-04    -2.89304971e-05     0.00000000e+00    
           3.39958584e-04    -2.85880451e-05     0.00000000e+00    
           3.46456538e-04    -2.67172400e-05     0.00000000e+00    
           3.51940573e-04    -2.39377678e-05     0.00000000e+00    
           3.56125151e-04    -2.02027186e-05     0.00000000e+00    
           3.59299767e-04    -1.58566199e-05     0.00000000e+00    
           3.61256913e-04    -1.14065760e-05     0.00000000e+00    
           3.61650425e-04    -6.95378094e-06     0.00000000e+00    
           3.57104262e-04     2.89573450e-06     0.00000000e+00    
           3.50504910e-04     8.12178496e-06     0.00000000e+00    
           3.42270272e-04     1.19880679e-05     0.00000000e+00    
           3.33498523e-04     1.35460632e-05     0.00000000e+00    
           3.24499764e-04     1.28222082e-05     0.00000000e+00    
           3.15876445e-04     9.93357753e-06     0.00000000e+00    
           3.08186194e-04     5.09562051e-06     0.00000000e+00    
           3.04373942e-04     1.06355594e-06     0.00000000e+00    
           4.78737202e-04     3.71057431e-05     0.00000000e+00    
           4.67234204e-04     3.65709202e-05     0.00000000e+00    
           4.56622336e-04     3.41757514e-05     0.00000000e+00    
           4.47625527e-04     3.02003973e-05     0.00000000e+00    
           4.40491072e-04     2.47134994e-05     0.00000000e+00    
           4.34984482e-04     1.81680934e-05     0.00000000e+00    
           4.31282009e-04     1.11942918e-05     0.00000000e+00    
           4.30121640e-04    -2.32522416e-06     0.00000000e+00    
           4.32994304e-04    -9.48859542e-06     0.00000000e+00    
           4.39038151e-04    -1.74081779e-05     0.00000000e+00    
           4.47590806e-04    -2.47482985e-05     0.00000000e+00    
           4.57293267e-04    -2.98847426e-05     0.00000000e+00    
           4.67528473e-04    -3.23674540e-05     0.00000000e+00    
           4.78382222e-04    -3.24759822e-05     0.00000000e+00    
          -6.85518984e-08    -2.60408779e-05     0.00000000e+00    
           8.87987790e-06    -2.00976901e-05     0.00000000e+00    
           1.56253009e-05    -1.32563964e-05     0.00000000e+00    
           1.99592178e-05    -6.35069364e-06     0.00000000e+00    
           2.16717344e-05     1.00604314e-06     0.00000000e+00    
           2.12158320e-05     8.37150947e-06     0.00000000e+00    
           1.71365518e-05     1.69793184e-05     0.00000000e+00    
           1.00001325e-05     2.51598958e-05     0.00000000e+00    
           7.84013139e-07     3.14896133e-05     0.00000000e+00    
           4.61502175e-04    -5.97455346e-06     0.00000000e+00    
           4.56207228e-04    -4.78045513e-06     0.00000000e+00    
           4.50253981e-04    -4.70680925e-06     0.00000000e+00    
           4.43780009e-04    -5.83116434e-06     0.00000000e+00    
           4.36972827e-04    -8.62123125e-06     0.00000000e+00    
           4.31442546e-04    -1.26922223e-05     0.00000000e+00    
           4.28344763e-04    -1.64073517e-05     0.00000000e+00    
           4.27316932e-04    -1.90065512e-05     0.00000000e+00    
           4.29047592e-04    -2.37359691e-05     0.00000000e+00    
           4.31398134e-04    -2.59780900e-05     0.00000000e+00    
           4.34703630e-04    -2.78148218e-05     0.00000000e+00    
           4.38575458e-04    -2.92477071e-05     0.00000000e+00    
           4.42728866e-04    -3.00253796e-05     0.00000000e+00    
           4.47425176e-04    -3.05308531e-05     0.00000000e+00    
           4.52602369e-04    -3.07394730e-05     0.00000000e+00    
           4.58221737e-04    -3.02390818e-05     0.00000000e+00    
          -3.19295104e-05    -2.60675479e-05     0.00000000e+00    
          -2.86395643e-05    -2.28103581e-05     0.00000000e+00    
          -2.69770171e-05    -1.93170399e-05     0.00000000e+00    
          -2.74046834e-05    -1.54579757e-05     0.00000000e+00    
          -2.98739942e-05    -1.16691654e-05     0.00000000e+00    
           9.27712535e-05    -6.05710420e-06     0.00000000e+00    
           1.00441910e-04    -3.31763113e-06     0.00000000e+00    
           1.06722408e-04    -2.79853793e-07     0.00000000e+00    
           1.12162423e-04     4.11263045e-06     0.00000000e+00    
           1.16358977e-04     9.70233850e-06     0.00000000e+00    
           1.18754200e-04     1.59925366e-05     0.00000000e+00    
           1.19221993e-04     2.26786797e-05     0.00000000e+00    
           1.16512994e-04     2.98494961e-05     0.00000000e+00    
           1.10269568e-04     3.73899384e-05     0.00000000e+00    
           1.01611578e-04     4.36696027e-05     0.00000000e+00    
           9.17896323e-05     4.75122615e-05     0.00000000e+00    
           7.13977497e-05     4.78157090e-05     0.00000000e+00    
           6.19975617e-05     4.48836399e-05     0.00000000e+00    
           5.40228721e-05     4.02890255e-05     0.00000000e+00    
           4.80326853e-05     3.43110260e-05     0.00000000e+00    
           4.43972312e-05     2.73296137e-05     0.00000000e+00    
           4.32151719e-05     1.96843193e-05     0.00000000e+00    
           4.47464008e-05     1.16442006e-05     0.00000000e+00    
           4.91626015e-05     4.10555003e-06     0.00000000e+00    
           5.56536288e-05    -1.85063914e-06     0.00000000e+00    
           6.39656646e-05    -5.86242595e-06     0.00000000e+00    
           7.36086877e-05    -7.87808222e-06     0.00000000e+00    
           4.55922738e-04    -4.58617069e-06     0.00000000e+00    
           4.61011194e-04     1.97885265e-06     0.00000000e+00    
           4.64256387e-04     9.70825840e-06     0.00000000e+00    
           4.64743032e-04     1.83866614e-05     0.00000000e+00    
           4.62039112e-04     2.73985825e-05     0.00000000e+00    
           4.56781912e-04     3.54555086e-05     0.00000000e+00    
           4.49634041e-04     4.17703450e-05     0.00000000e+00    
           4.41458309e-04     4.61684504e-05     0.00000000e+00    
           4.32769943e-04     4.85376077e-05     0.00000000e+00    
           4.13217000e-04     4.79935698e-05     0.00000000e+00    
           4.03083774e-04     4.47842758e-05     0.00000000e+00    
           3.94177361e-04     3.98478514e-05     0.00000000e+00    
           3.87399574e-04     3.37354468e-05     0.00000000e+00    
           3.83186445e-04     2.67356427e-05     0.00000000e+00    
           3.81052785e-04     1.94274726e-05     0.00000000e+00    
           3.80859274e-04     1.20543682e-05     0.00000000e+00    
           3.82552069e-04     5.09206575e-06     0.00000000e+00    
           3.87298001e-04    -2.01185594e-06     0.00000000e+00    
           4.04724880e-04    -1.35681084e-05     0.00000000e+00    
           4.14462731e-04    -1.61184817e-05     0.00000000e+00    
           4.24263650e-04    -1.66676782e-05     0.00000000e+00    
           4.33566864e-04    -1.54685949e-05     0.00000000e+00    
           4.41942044e-04    -1.30411854e-05     0.00000000e+00    
           3.85347055e-04    -3.97320182e-05     0.00000000e+00    
           3.95427342e-04    -3.58560428e-05     0.00000000e+00    
           4.04453109e-04    -3.03917859e-05     0.00000000e+00    
           4.10400331e-04    -2.42807673e-05     0.00000000e+00    
           4.13881236e-04    -1.87782807e-05     0.00000000e+00    
           4.15220071e-04    -1.34336324e-05     0.00000000e+00    
           4.15085349e-04    -7.79846960e-06     0.00000000e+00    
           4.13572154e-04    -1.54430325e-06     0.00000000e+00    
           4.09013650e-04     5.48183925e-06     0.00000000e+00    
           4.01435420e-04     1.28370957e-05     0.00000000e+00    
           3.91968089e-04     1.85205190e-05     0.00000000e+00    
           3.81763995e-04     2.17324123e-05     0.00000000e+00    
           3.61321931e-04     2.18798650e-05     0.00000000e+00    
           3.52710369e-04     1.93348751e-05     0.00000000e+00    
           3.45394044e-04     1.59071824e-05     0.00000000e+00    
           3.39264894e-04     1.09342236e-05     0.00000000e+00    
           3.34475772e-04     4.75099750e-06     0.00000000e+00    
           3.31289426e-04    -2.22772383e-06     0.00000000e+00    
           3.30652547e-04    -9.97906591e-06     0.00000000e+00    
           3.33133881e-04    -1.80456846e-05     0.00000000e+00    
           3.38336598e-04    -2.58679083e-05     0.00000000e+00    
           3.45658569e-04    -3.25747933e-05     0.00000000e+00    
           3.54496326e-04    -3.74617593e-05     0.00000000e+00    
           3.64377222e-04    -4.04001512e-05     0.00000000e+00    
           4.42313729e-04     2.17399611e-05     0.00000000e+00    
           4.47771541e-04     2.32645343e-05     0.00000000e+00    
           4.52292414e-04     2.57205811e-05     0.00000000e+00    
           4.55254427e-04     2.88133833e-05     0.00000000e+00    
           4.56450682e-04     3.21659427e-05     0.00000000e+00    
           4.55935136e-04     3.55312477e-05     0.00000000e+00    
           4.53899760e-04     3.85737185e-05     0.00000000e+00    
           4.50720894e-04     4.10014109e-05     0.00000000e+00    
           4.46745515e-04     4.26821171e-05     0.00000000e+00    
           4.42638091e-04     4.33132882e-05     0.00000000e+00    
           4.33211710e-04     4.42577475e-05     0.00000000e+00    
           4.28072730e-04     4.38974421e-05     0.00000000e+00    
           4.23399906e-04     4.25923063e-05     0.00000000e+00    
           4.19510761e-04     4.06156469e-05     0.00000000e+00    
           4.17027739e-04     3.74856172e-05     0.00000000e+00    
           4.16474621e-04     3.34408360e-05     0.00000000e+00    
           4.18347889e-04     2.88599294e-05     0.00000000e+00    
           4.22124023e-04     2.49811237e-05     0.00000000e+00    
           4.26422746e-04     2.26460488e-05     0.00000000e+00    
           4.31156921e-04     2.16361441e-05     0.00000000e+00    
           1.59253803e-04    -5.57464409e-06     0.00000000e+00    
           1.64406665e-04    -5.03294950e-06     0.00000000e+00    
           1.68805505e-04    -3.79560129e-06     0.00000000e+00    
           1.73126027e-04    -1.02393176e-06     0.00000000e+00    
           1.76211353e-04     3.25278916e-06     0.00000000e+00    
           1.77038193e-04     7.41698295e-06     0.00000000e+00    
           1.75636145e-04     1.13830147e-05     0.00000000e+00    
           1.72079817e-04     1.52413622e-05     0.00000000e+00    
           1.67058271e-04     1.78196478e-05     0.00000000e+00    
           1.61182790e-04     1.95943303e-05     0.00000000e+00    
           1.54434078e-04     2.06338882e-05     0.00000000e+00    
           1.41365832e-04     1.93946635e-05     0.00000000e+00    
           1.36840710e-04     1.79756480e-05     0.00000000e+00    
           1.33709007e-04     1.62469441e-05     0.00000000e+00    
           1.31046254e-04     1.37261122e-05     0.00000000e+00    
           1.29130887e-04     1.05845247e-05     0.00000000e+00    
           1.28307307e-04     7.06832043e-06     0.00000000e+00    
           1.29272215e-04     3.39201574e-06     0.00000000e+00    
           1.31813445e-04    -8.89912215e-08     0.00000000e+00    
           1.35864364e-04    -2.90625417e-06     0.00000000e+00    
           1.40988370e-04    -5.03480896e-06     0.00000000e+00    
           1.46917286e-04    -6.12085705e-06     0.00000000e+00    
           7.85880911e-05     2.60408651e-05     0.00000000e+00    
           7.40576797e-05     2.26987395e-05     0.00000000e+00    
           7.08217121e-05     1.82096810e-05     0.00000000e+00    
           6.91335008e-05     1.28221582e-05     0.00000000e+00    
           7.00387318e-05     6.65136895e-06     0.00000000e+00    
           7.46989026e-05    -5.37031269e-07     0.00000000e+00    
           8.16165266e-05    -6.64249637e-06     0.00000000e+00    
           8.96106649e-05    -1.06654725e-05     0.00000000e+00    
           9.77243326e-05    -1.26296700e-05     0.00000000e+00    
           1.12260481e-04    -1.25190372e-05     0.00000000e+00    
           1.18384378e-04    -1.12116822e-05     0.00000000e+00    
           1.24295126e-04    -8.44685565e-06     0.00000000e+00    
           1.29507651e-04    -4.21749246e-06     0.00000000e+00    
           1.33471942e-04     1.50489177e-06     0.00000000e+00    
           1.35047580e-04     7.96250151e-06     0.00000000e+00    
           1.34351838e-04     1.44853857e-05     0.00000000e+00    
           1.31564608e-04     2.06047243e-05     0.00000000e+00    
           1.26905477e-04     2.57647080e-05     0.00000000e+00    
           1.13277121e-04     3.22355190e-05     0.00000000e+00    
           1.05190273e-04     3.27439229e-05     0.00000000e+00    
           9.70963665e-05     3.21141160e-05     0.00000000e+00    
           8.97737991e-05     3.03086144e-05     0.00000000e+00    
           2.46077252e-04    -2.56448311e-05     0.00000000e+00    
           2.51803431e-04    -2.38910779e-05     0.00000000e+00    
           2.56913190e-04    -2.12622417e-05     0.00000000e+00    
           2.61495821e-04    -1.75909572e-05     0.00000000e+00    
           2.64936651e-04    -1.32735722e-05     0.00000000e+00    
           2.66578223e-04    -8.34345792e-06     0.00000000e+00    
           2.66221061e-04    -2.86097224e-06     0.00000000e+00    
           2.63625203e-04     3.00245006e-06     0.00000000e+00    
           2.59182707e-04     8.43302132e-06     0.00000000e+00    
           2.53625738e-04     1.24885491e-05     0.00000000e+00    
           2.46950513e-04     1.51297072e-05     0.00000000e+00    
           2.31391139e-04     1.65316651e-05     0.00000000e+00    
           2.23875308e-04     1.48701702e-05     0.00000000e+00    
           2.17209497e-04     1.16165011e-05     0.00000000e+00    
           2.12000872e-04     6.79897767e-06     0.00000000e+00    
           2.08576676e-04     9.34073626e-07     0.00000000e+00    
           2.07440084e-04    -5.49975721e-06     0.00000000e+00    
           2.08719852e-04    -1.18178450e-05     0.00000000e+00    
           2.12143699e-04    -1.72321288e-05     0.00000000e+00    
           2.17431341e-04    -2.17091856e-05     0.00000000e+00    