<?xml version="1.0"?>
<VTKFile type="UnstructuredGrid" version="0.1">
  <UnstructuredGrid>
    <Piece NumberOfPoints="1034" NumberOfCells="1614">
      <Points>
        <DataArray type="Float32" NumberOfComponents="3">
           5.21582007e-01     5.11657000e-01     0.00000000e+00    
           5.07319987e-01     5.11657000e-01     0.00000000e+00    
           4.65243995e-01     5.17907977e-01     0.00000000e+00    
           4.65243995e-01     5.04921973e-01     0.00000000e+00    
           4.75246996e-01     5.11415005e-01     0.00000000e+00    
           5.33852994e-01     5.04921973e-01     0.00000000e+00    
           5.33852994e-01     5.17907977e-01     0.00000000e+00    
           4.83779997e-01     5.34618974e-01     0.00000000e+00    
           4.68984991e-01     5.34618974e-01     0.00000000e+00    
           4.76381987e-01     5.23841977e-01     0.00000000e+00    
           4.68984991e-01     4.66010004e-01     0.00000000e+00    
           4.83779997e-01     4.66010004e-01     0.00000000e+00    
           4.99920011e-01     5.34618974e-01     0.00000000e+00    
           4.89203990e-01     5.34618974e-01     0.00000000e+00    
           4.94562000e-01     5.22280991e-01     0.00000000e+00    
           4.89203990e-01     4.66010004e-01     0.00000000e+00    
           4.99920011e-01     4.66010004e-01     0.00000000e+00    
           5.32517016e-01     4.74112004e-01     0.00000000e+00    
           5.17961025e-01     4.74112004e-01     0.00000000e+00    
           5.33852994e-01     5.19801974e-01     0.00000000e+00    
           5.33852994e-01     5.29603004e-01     0.00000000e+00    
           5.19536972e-01     5.24702013e-01     0.00000000e+00    
           4.65243995e-01     5.29603004e-01     0.00000000e+00    
           4.65243995e-01     5.19801974e-01     0.00000000e+00    
           4.92487997e-01     5.17117977e-01     0.00000000e+00    
           4.76904988e-01     5.17117977e-01     0.00000000e+00    
           5.17996013e-01     5.27033985e-01     0.00000000e+00    
           5.04473984e-01     5.27033985e-01     0.00000000e+00    
           5.08446991e-01     4.83435005e-01     0.00000000e+00    
           4.94414002e-01     4.83435005e-01     0.00000000e+00    
           4.65243995e-01     4.83101994e-01     0.00000000e+00    
           4.65243995e-01     4.74415004e-01     0.00000000e+00    
           4.78336990e-01     4.78758007e-01     0.00000000e+00    
           5.33852994e-01     4.74415004e-01     0.00000000e+00    
           5.33852994e-01     4.83101994e-01     0.00000000e+00    
           4.80668008e-01     4.95810986e-01     0.00000000e+00    
           4.66084987e-01     4.95810986e-01     0.00000000e+00    
           4.93930012e-01     4.79214013e-01     0.00000000e+00    
           4.78967011e-01     4.79214013e-01     0.00000000e+00    
           5.09284973e-01     4.97658014e-01     0.00000000e+00    
           4.95503992e-01     4.97658014e-01     0.00000000e+00    
           5.33011973e-01     5.01751006e-01     0.00000000e+00    
           5.17829001e-01     5.01751006e-01     0.00000000e+00    
           4.95451003e-01     5.00564992e-01     0.00000000e+00    
           4.80922014e-01     5.00564992e-01     0.00000000e+00    
           5.25367022e-01     4.88312006e-01     0.00000000e+00    
           5.09521008e-01     4.88312006e-01     0.00000000e+00    
           4.65243995e-01     5.34618974e-01     0.00000000e+00    
           4.65243995e-01     4.66010004e-01     0.00000000e+00    
           5.33852994e-01     4.66010004e-01     0.00000000e+00    
           5.33852994e-01     5.34618974e-01     0.00000000e+00    
           5.21338999e-01     5.13502657e-01     0.00000000e+00    
           5.20626605e-01     5.15222490e-01     0.00000000e+00    
           5.19493401e-01     5.16699374e-01     0.00000000e+00    
           5.18016517e-01     5.17832637e-01     0.00000000e+00    
           5.16296625e-01     5.18545032e-01     0.00000000e+00    
           5.14451027e-01     5.18787980e-01     0.00000000e+00    
           5.12605369e-01     5.18545032e-01     0.00000000e+00    
           5.10885477e-01     5.17832637e-01     0.00000000e+00    
           5.09408593e-01     5.16699374e-01     0.00000000e+00    
           5.08275390e-01     5.15222490e-01     0.00000000e+00    
           5.07562995e-01     5.13502657e-01     0.00000000e+00    
           5.07562995e-01     5.09811342e-01     0.00000000e+00    
           5.08275390e-01     5.08091509e-01     0.00000000e+00    
           5.09408593e-01     5.06614625e-01     0.00000000e+00    
           5.10885477e-01     5.05481362e-01     0.00000000e+00    
           5.12605369e-01     5.04768968e-01     0.00000000e+00    
           5.14451027e-01     5.04526019e-01     0.00000000e+00    
           5.16296625e-01     5.04768968e-01     0.00000000e+00    
           5.18016517e-01     5.05481362e-01     0.00000000e+00    
           5.19493401e-01     5.06614625e-01     0.00000000e+00    
           5.20626605e-01     5.08091509e-01     0.00000000e+00    
           5.21338999e-01     5.09811342e-01     0.00000000e+00    
           4.66931671e-01     5.04409373e-01     0.00000000e+00    
           4.68693614e-01     5.04328012e-01     0.00000000e+00    
           4.70421344e-01     5.04682958e-01     0.00000000e+00    
           4.72008497e-01     5.05452335e-01     0.00000000e+00    
           4.73357379e-01     5.06588817e-01     0.00000000e+00    
           4.74384934e-01     5.08022368e-01     0.00000000e+00    
           4.75027919e-01     5.09664834e-01     0.00000000e+00    
           4.75028187e-01     5.13165236e-01     0.00000000e+00    
           4.74385172e-01     5.14807761e-01     0.00000000e+00    
           4.73357558e-01     5.16241372e-01     0.00000000e+00    
           4.72008646e-01     5.17377913e-01     0.00000000e+00    
           4.70421433e-01     5.18147290e-01     0.00000000e+00    
           4.68693614e-01     5.18502235e-01     0.00000000e+00    
           4.66931641e-01     5.18420875e-01     0.00000000e+00    
           5.32303810e-01     5.16964078e-01     0.00000000e+00    
           5.31043947e-01     5.15658796e-01     0.00000000e+00    
           5.30155540e-01     5.14077127e-01     0.00000000e+00    
           5.29696345e-01     5.12322068e-01     0.00000000e+00    
           5.29696345e-01     5.10507941e-01     0.00000000e+00    
           5.30155540e-01     5.08752882e-01     0.00000000e+00    
           5.31043947e-01     5.07171214e-01     0.00000000e+00    
           5.32303810e-01     5.05865932e-01     0.00000000e+00    
           4.68517244e-01     5.32760799e-01     0.00000000e+00    
           4.68509018e-01     5.30844629e-01     0.00000000e+00    
           4.68960851e-01     5.28982460e-01     0.00000000e+00    
           4.69846308e-01     5.27283132e-01     0.00000000e+00    
           4.71113682e-01     5.25845945e-01     0.00000000e+00    
           4.72688884e-01     5.24754822e-01     0.00000000e+00    
           4.74479854e-01     5.24073541e-01     0.00000000e+00    
           4.78284091e-01     5.24073601e-01     0.00000000e+00    
           4.80075032e-01     5.24754822e-01     0.00000000e+00    
           4.81650203e-01     5.25845885e-01     0.00000000e+00    
           4.82917547e-01     5.27283013e-01     0.00000000e+00    
           4.83803004e-01     5.28982282e-01     0.00000000e+00    
           4.84254897e-01     5.30844331e-01     0.00000000e+00    
           4.84246761e-01     5.32760441e-01     0.00000000e+00    
           4.82887864e-01     4.67691004e-01     0.00000000e+00    
           4.81620818e-01     4.69110936e-01     0.00000000e+00    
           4.80051905e-01     4.70188022e-01     0.00000000e+00    
           4.78271484e-01     4.70860153e-01     0.00000000e+00    
           4.76382166e-01     4.71088618e-01     0.00000000e+00    
           4.74492878e-01     4.70860243e-01     0.00000000e+00    
           4.72712427e-01     4.70188200e-01     0.00000000e+00    
           4.71143454e-01     4.69111174e-01     0.00000000e+00    
           4.69876349e-01     4.67691302e-01     0.00000000e+00    
           4.88103986e-01     5.33086061e-01     0.00000000e+00    
           4.87431526e-01     5.31323195e-01     0.00000000e+00    
           4.87231195e-01     5.29447019e-01     0.00000000e+00    
           4.87516224e-01     5.27581930e-01     0.00000000e+00    
           4.88267750e-01     5.25851250e-01     0.00000000e+00    
           4.89436030e-01     5.24369657e-01     0.00000000e+00    
           4.90943670e-01     5.23235261e-01     0.00000000e+00    
           4.92690891e-01     5.22523046e-01     0.00000000e+00    
           4.96432930e-01     5.22523701e-01     0.00000000e+00    
           4.98180002e-01     5.23235798e-01     0.00000000e+00    
           4.99687493e-01     5.24370134e-01     0.00000000e+00    
           5.00855684e-01     5.25851607e-01     0.00000000e+00    
           5.01607120e-01     5.27582109e-01     0.00000000e+00    
           5.01892149e-01     5.29447079e-01     0.00000000e+00    
           5.01691818e-01     5.31323016e-01     0.00000000e+00    
           5.01019418e-01     5.33085763e-01     0.00000000e+00    
           4.98371124e-01     4.67269689e-01     0.00000000e+00    
           4.96539861e-01     4.68064904e-01     0.00000000e+00    
           4.94562000e-01     4.68336672e-01     0.00000000e+00    
           4.92584139e-01     4.68064904e-01     0.00000000e+00    
           4.90752876e-01     4.67269689e-01     0.00000000e+00    
           5.32269001e-01     4.75995690e-01     0.00000000e+00    
           5.31541944e-01     4.77750987e-01     0.00000000e+00    
           5.30385315e-01     4.79258329e-01     0.00000000e+00    
           5.28877974e-01     4.80414927e-01     0.00000000e+00    
[...]
      <PointData>
        <DataArray type="Float32" Name="Displacement" NumberOfComponents="3">
           1.01660611e-03     7.59628674e-05     0.00000000e+00    
           1.01626315e-03     2.06632554e-04     0.00000000e+00    
           1.12211017e-03     2.33659339e-05     0.00000000e+00    
           9.52030707e-04     3.01214204e-05     0.00000000e+00    
           1.03882060e-03    -6.91510068e-05     0.00000000e+00    
           9.52030707e-04     3.01214204e-05     0.00000000e+00    
           1.12211017e-03     2.33659339e-05     0.00000000e+00    
           1.44967821e-03    -7.98214169e-05     0.00000000e+00    
           1.45418942e-03     1.09547094e-04     0.00000000e+00    
           1.28907233e-03     1.82432359e-05     0.00000000e+00    
          -4.58105751e-05     1.09547094e-04     0.00000000e+00    
          -5.03218289e-05    -7.98214169e-05     0.00000000e+00    
           1.38350495e-03    -7.19953387e-05     0.00000000e+00    
           1.38861325e-03    -2.88605006e-05     0.00000000e+00    
           1.30551937e-03    -5.47931922e-05     0.00000000e+00    
          -1.11386798e-04    -2.88605006e-05     0.00000000e+00    
          -1.16495081e-04    -7.19953387e-05     0.00000000e+00    
           2.70979945e-04    -5.05865028e-05     0.00000000e+00    
           2.67922849e-04     1.91626983e-04     0.00000000e+00    
           1.19962322e-03    -3.13991313e-06     0.00000000e+00    
           1.34899304e-03    -9.29814905e-06     0.00000000e+00    
           1.27652381e-03     1.70964413e-04     0.00000000e+00    
           1.34899304e-03    -9.29814905e-06     0.00000000e+00    
           1.19962322e-03    -3.13991313e-06     0.00000000e+00    
           1.14782446e-03    -1.23627833e-04     0.00000000e+00    
           1.14197226e-03     5.84112495e-05     0.00000000e+00    
           1.31463225e-03     1.05002735e-04     0.00000000e+00    
           1.31792400e-03     1.81246913e-04     0.00000000e+00    
           4.78215341e-04    -7.54939992e-06     0.00000000e+00    
           4.72154119e-04     7.96043896e-05     0.00000000e+00    
           4.16901865e-04     1.33473790e-04     0.00000000e+00    
           2.70822260e-04     1.35120878e-04     0.00000000e+00    
           3.50329385e-04    -5.45074945e-05     0.00000000e+00    
           2.70822260e-04     1.35120878e-04     0.00000000e+00    
           4.16901865e-04     1.33473790e-04     0.00000000e+00    
           7.70763436e-04    -8.02447903e-05     0.00000000e+00    
           7.71301275e-04     6.73863251e-05     0.00000000e+00    
           3.83635866e-04    -1.15995164e-04     0.00000000e+00    
           3.74376454e-04     2.80889399e-05     0.00000000e+00    
           7.72386789e-04     4.97888286e-05     0.00000000e+00    
           7.80833943e-04     4.36638074e-05     0.00000000e+00    
           8.74790829e-04    -1.81148134e-05     0.00000000e+00    
           8.78174440e-04     1.44581747e-04     0.00000000e+00    
           7.99969013e-04    -6.33688251e-05     0.00000000e+00    
           8.06410506e-04    -6.53911957e-06     0.00000000e+00    
           5.84197522e-04     4.02295191e-05     0.00000000e+00    
           5.82710083e-04     2.64887756e-04     0.00000000e+00    
           1.50000001e-03     0.00000000e+00     0.00000000e+00    
           0.00000000e+00     0.00000000e+00     0.00000000e+00    
           0.00000000e+00     0.00000000e+00     0.00000000e+00    
           1.50000001e-03     0.00000000e+00     0.00000000e+00    
           1.04001816e-03     7.81346171e-05     0.00000000e+00    
           1.06114813e-03     8.54233513e-05     0.00000000e+00    
           1.07876305e-03     9.59561148e-05     0.00000000e+00    
           1.09181087e-03     1.08971974e-04     0.00000000e+00    
           1.09966774e-03     1.24244194e-04     0.00000000e+00    
           1.10262609e-03     1.40286575e-04     0.00000000e+00    
           1.09984213e-03     1.57569710e-04     0.00000000e+00    
           1.09087117e-03     1.74570261e-04     0.00000000e+00    
           1.07604056e-03     1.89166545e-04     0.00000000e+00    
           1.05803472e-03     1.99130693e-04     0.00000000e+00    
           1.03785156e-03     2.05080069e-04     0.00000000e+00    
           9.94614442e-04     2.03468269e-04     0.00000000e+00    
           9.74434370e-04     1.96501918e-04     0.00000000e+00    
           9.57440410e-04     1.86141522e-04     0.00000000e+00    
           9.44639789e-04     1.73634005e-04     0.00000000e+00    
           9.37063480e-04     1.59363277e-04     0.00000000e+00    
           9.35091579e-04     1.44332560e-04     0.00000000e+00    
           9.37203702e-04     1.29816573e-04     0.00000000e+00    
           9.42334882e-04     1.17381474e-04     0.00000000e+00    
           9.51239024e-04     1.05874438e-04     0.00000000e+00    
           9.68781067e-04     9.09477749e-05     0.00000000e+00    
           9.92155517e-04     8.00090420e-05     0.00000000e+00    
           9.46763379e-04     1.67189046e-05     0.00000000e+00    
           9.45660344e-04     1.25241490e-06     0.00000000e+00    
           9.49801819e-04    -1.60113432e-05     0.00000000e+00    
           9.59982455e-04    -3.33224707e-05     0.00000000e+00    
           9.75153991e-04    -4.87687030e-05     0.00000000e+00    
           9.94107919e-04    -6.02233449e-05     0.00000000e+00    
           1.01570867e-03    -6.69026340e-05     0.00000000e+00    
           1.06131600e-03    -6.67969507e-05     0.00000000e+00    
           1.08122849e-03    -6.00518651e-05     0.00000000e+00    
           1.09810743e-03    -4.99059643e-05     0.00000000e+00    
           1.11095107e-03    -3.67346947e-05     0.00000000e+00    
           1.12021365e-03    -2.17951565e-05     0.00000000e+00    
           1.12544815e-03    -6.43938802e-06     0.00000000e+00    
           1.12587528e-03     8.78238188e-06     0.00000000e+00    
           1.11119216e-03     4.02891310e-05     0.00000000e+00    
           1.09235896e-03     5.63718932e-05     0.00000000e+00    
           1.06912374e-03     6.85071864e-05     0.00000000e+00    
           1.04446535e-03     7.41036492e-05     0.00000000e+00    
           1.01954176e-03     7.33483394e-05     0.00000000e+00    
           9.96026793e-04     6.71404414e-05     0.00000000e+00    
           9.76162148e-04     5.66444869e-05     0.00000000e+00    
           9.61771584e-04     4.32718552e-05     0.00000000e+00    
           1.42366672e-03     1.14800103e-04     0.00000000e+00    
           1.39270211e-03     1.13948940e-04     0.00000000e+00    
           1.36353972e-03     1.07335793e-04     0.00000000e+00    
           1.33841892e-03     9.55453579e-05     0.00000000e+00    
           1.31833169e-03     7.92770807e-05     0.00000000e+00    
           1.30306301e-03     5.98864644e-05     0.00000000e+00    
           1.29303127e-03     3.90784735e-05     0.00000000e+00    
           1.29040179e-03    -2.00049044e-06     0.00000000e+00    
           1.29867659e-03    -2.29056404e-05     0.00000000e+00    
           1.31532561e-03    -4.49592590e-05     0.00000000e+00    
           1.33861962e-03    -6.47400957e-05     0.00000000e+00    
           1.36476569e-03    -7.86111050e-05     0.00000000e+00    
           1.39201048e-03    -8.51898294e-05     0.00000000e+00    
           1.42064644e-03    -8.54972095e-05     0.00000000e+00    
          -2.29788766e-05    -6.82967366e-05     0.00000000e+00    
           4.46493004e-07    -5.20558933e-05     0.00000000e+00    
           1.83247430e-05    -3.21966909e-05     0.00000000e+00    
           3.02615590e-05    -1.15365610e-05     0.00000000e+00    
           3.48102330e-05     1.07676269e-05     0.00000000e+00    
           3.33183270e-05     3.26548652e-05     0.00000000e+00    
           2.28818153e-05     5.71516757e-05     0.00000000e+00    
           5.35953313e-06     7.99804548e-05     0.00000000e+00    
          -1.84342425e-05     9.78339012e-05     0.00000000e+00    
           1.37866999e-03    -2.36303022e-05     0.00000000e+00    
           1.36713474e-03    -2.10303042e-05     0.00000000e+00    
           1.35424978e-03    -2.08285055e-05     0.00000000e+00    
           1.34054711e-03    -2.31160211e-05     0.00000000e+00    
           1.32657588e-03    -2.84972375e-05     0.00000000e+00    
           1.31592201e-03    -3.56828023e-05     0.00000000e+00    
           1.30932685e-03    -4.30805558e-05     0.00000000e+00    
           1.30578689e-03    -4.91860228e-05     0.00000000e+00    
           1.30779657e-03    -6.05830246e-05     0.00000000e+00    
           1.31282641e-03    -6.60490550e-05     0.00000000e+00    
           1.32008805e-03    -7.04580889e-05     0.00000000e+00    
           1.32869056e-03    -7.40201067e-05     0.00000000e+00    
           1.33819936e-03    -7.61308111e-05     0.00000000e+00    
           1.34912098e-03    -7.73970532e-05     0.00000000e+00    
           1.36073155e-03    -7.72845306e-05     0.00000000e+00    
           1.37260836e-03    -7.55655637e-05     0.00000000e+00    
          -1.07138825e-04    -6.61370650e-05     0.00000000e+00    
          -1.00717094e-04    -5.93724835e-05     0.00000000e+00    
          -9.74386567e-05    -5.25482246e-05     0.00000000e+00    
          -9.85020961e-05    -4.47243074e-05     0.00000000e+00    
          -1.02870697e-04    -3.65191227e-05     0.00000000e+00    
           3.07546346e-04    -4.62554017e-05     0.00000000e+00    
           3.39942373e-04    -3.33069183e-05     0.00000000e+00    
           3.66532768e-04    -1.43792668e-05     0.00000000e+00    
           3.87018750e-04     8.88243903e-06     0.00000000e+00    
           4.01131867e-04     3.55244774e-05     0.00000000e+00    
           4.07546788e-04     6.42277446e-05     0.00000000e+00    
           4.05943516e-04     9.33847405e-05     0.00000000e+00    
           3.93908907e-04     1.22478144e-04     0.00000000e+00    
           3.70931026e-04     1.50467749e-04     0.00000000e+00    
           3.40007828e-04     1.73185384e-04     0.00000000e+00    
           3.04815010e-04     1.87192694e-04     0.00000000e+00    
           2.31058104e-04     1.87847065e-04     0.00000000e+00    
           1.96742680e-04     1.75950830e-04     0.00000000e+00    
           1.67354170e-04     1.57018061e-04     0.00000000e+00    
           1.44950071e-04     1.32161804e-04     0.00000000e+00    
           1.31249006e-04     1.03297534e-04     0.00000000e+00    
           1.26453364e-04     7.25082355e-05     0.00000000e+00    
           1.30428831e-04     4.09643544e-05     0.00000000e+00    
           1.45083482e-04     1.03071652e-05     0.00000000e+00    
           1.68059545e-04    -1.54981208e-05     0.00000000e+00    
           1.98273236e-04    -3.48162903e-05     0.00000000e+00    
           2.33536295e-04    -4.69708721e-05     0.00000000e+00    
           1.36892707e-03     6.70308054e-06     0.00000000e+00    
           1.38383382e-03     2.68813510e-05     0.00000000e+00    
           1.39294029e-03     5.06336291e-05     0.00000000e+00    
           1.39395765e-03     7.70675324e-05     0.00000000e+00    
           1.38637191e-03     1.04132268e-04     0.00000000e+00    
           1.37176551e-03     1.28385363e-04     0.00000000e+00    
           1.35158282e-03     1.47721003e-04     0.00000000e+00    
           1.32831244e-03     1.61276126e-04     0.00000000e+00    
           1.30333507e-03     1.68830564e-04     0.00000000e+00    
           1.24799903e-03     1.67731196e-04     0.00000000e+00    
           1.21983711e-03     1.58581403e-04     0.00000000e+00    
           1.19496707e-03     1.44023317e-04     0.00000000e+00    
           1.17562641e-03     1.25325794e-04     0.00000000e+00    
           1.16343633e-03     1.03822276e-04     0.00000000e+00    
           1.15743722e-03     8.13571896e-05     0.00000000e+00    
           1.15732453e-03     5.90115160e-05     0.00000000e+00    
           1.16293947e-03     3.83253137e-05     0.00000000e+00    
           1.17657543e-03     1.71818683e-05     0.00000000e+00    
           1.22424751e-03    -1.73690023e-05     0.00000000e+00    
           1.25078950e-03    -2.56873136e-05     0.00000000e+00    
           1.27785129e-03    -2.84055204e-05     0.00000000e+00    
           1.30394730e-03    -2.59293593e-05     0.00000000e+00    
           1.32788869e-03    -1.91989748e-05     0.00000000e+00    
           1.17525039e-03    -1.20287463e-04     0.00000000e+00    
           1.20111171e-03    -1.11039684e-04     0.00000000e+00    
           1.22431794e-03    -9.76525989e-05     0.00000000e+00    
           1.24084146e-03    -8.08651675e-05     0.00000000e+00    
           1.25209219e-03    -6.33844684e-05     0.00000000e+00    
           1.25720771e-03    -4.61804339e-05     0.00000000e+00    
           1.25723577e-03    -2.85284095e-05     0.00000000e+00    
           1.25289545e-03    -9.85138831e-06     0.00000000e+00    
           1.24073797e-03     1.01434198e-05     0.00000000e+00    
           1.22079672e-03     3.02948501e-05     0.00000000e+00    
           1.19627814e-03     4.58475515e-05     0.00000000e+00    
           1.16965652e-03     5.50031909e-05     0.00000000e+00    
           1.11536670e-03     5.59220716e-05     0.00000000e+00    
           1.09153183e-03     4.82464384e-05     0.00000000e+00    
           1.07104972e-03     3.70981543e-05     0.00000000e+00    
           1.05425797e-03     2.17470479e-05     0.00000000e+00    
           1.04175066e-03     3.15777288e-06     0.00000000e+00    
           1.03420403e-03    -1.73449716e-05     0.00000000e+00    
           1.03357085e-03    -3.93493974e-05     0.00000000e+00    
           1.04048080e-03    -6.14418313e-05     0.00000000e+00    
           1.05363701e-03    -8.23475930e-05     0.00000000e+00    
           1.07236940e-03    -1.00139165e-04     0.00000000e+00    
           1.09518040e-03    -1.13194648e-04     0.00000000e+00    
           1.12069375e-03    -1.21114848e-04     0.00000000e+00    
           1.33071234e-03     1.06505235e-04     0.00000000e+00    
           1.34594715e-03     1.11243316e-04     0.00000000e+00    
           1.35854608e-03     1.18916854e-04     0.00000000e+00    
           1.36696559e-03     1.28848551e-04     0.00000000e+00    
           1.37068960e-03     1.39672469e-04     0.00000000e+00    
           1.36996328e-03     1.50644046e-04     0.00000000e+00    
           1.36471225e-03     1.61146876e-04     0.00000000e+00    
           1.35576341e-03     1.69789259e-04     0.00000000e+00    
           1.34430570e-03     1.76136542e-04     0.00000000e+00    
           1.33185217e-03     1.79408598e-04     0.00000000e+00    
           1.30336068e-03     1.80824194e-04     0.00000000e+00    
           1.28910108e-03     1.78082933e-04     0.00000000e+00    
           1.27630343e-03     1.72584128e-04     0.00000000e+00    
           1.26587157e-03     1.65052887e-04     0.00000000e+00    
           1.25974126e-03     1.54631183e-04     0.00000000e+00    
           1.25896640e-03     1.42236575e-04     0.00000000e+00    
           1.26369635e-03     1.29199223e-04     0.00000000e+00    
           1.27343507e-03     1.17728436e-04     0.00000000e+00    
           1.28533703e-03     1.10140136e-04     0.00000000e+00    
           1.29885506e-03     1.06340754e-04     0.00000000e+00    
           4.94857028e-04    -6.48267724e-06     0.00000000e+00    
           5.09515754e-04    -3.15031662e-06     0.00000000e+00    
           5.21681795e-04     3.68635142e-06     0.00000000e+00    
           5.31837402e-04     1.36278586e-05     0.00000000e+00    
           5.37191576e-04     2.54317438e-05     0.00000000e+00    
           5.38756314e-04     3.70504458e-05     0.00000000e+00    
           5.36862120e-04     4.79899427e-05     0.00000000e+00    
           5.30133664e-04     5.90599047e-05     0.00000000e+00    
           5.18856396e-04     6.72652677e-05     0.00000000e+00    
           5.05374337e-04     7.28789237e-05     0.00000000e+00    
           4.89162048e-04     7.77857058e-05     0.00000000e+00    
           4.55690781e-04     7.81073613e-05     0.00000000e+00    
           4.41501732e-04     7.33273846e-05     0.00000000e+00    
           4.30278451e-04     6.61339218e-05     0.00000000e+00    
           4.21666482e-04     5.72883146e-05     0.00000000e+00    
           4.16021619e-04     4.71560707e-05     0.00000000e+00    
           4.13725531e-04     3.63025392e-05     0.00000000e+00    
           4.16009483e-04     2.51876718e-05     0.00000000e+00    
           4.22555691e-04     1.46460179e-05     0.00000000e+00    
           4.33113106e-04     6.00429757e-06     0.00000000e+00    
           4.46275284e-04    -9.82988581e-07     0.00000000e+00    
           4.61670512e-04    -5.52353413e-06     0.00000000e+00    
           2.49932578e-04     1.18812794e-04     0.00000000e+00    
           2.33408602e-04     9.91281922e-05     0.00000000e+00    
           2.22996794e-04     7.58236129e-05     0.00000000e+00    
           2.19937720e-04     5.03295632e-05     0.00000000e+00    
           2.25055221e-04     2.46749514e-05     0.00000000e+00    
           2.41380505e-04    -2.26774227e-06     0.00000000e+00    
           2.64516275e-04    -2.51385845e-05     0.00000000e+00    
           2.91733159e-04    -4.11963229e-05     0.00000000e+00    
           3.20819876e-04    -5.12143233e-05     0.00000000e+00    
           3.78629018e-04    -5.12892220e-05     0.00000000e+00    
           4.04417515e-04    -4.27894156e-05     0.00000000e+00    
           4.27764986e-04    -2.89621203e-05     0.00000000e+00    
           4.47358820e-04    -9.78221397e-06     0.00000000e+00    
           4.61409043e-04     1.40869961e-05     0.00000000e+00    
           4.67409845e-04     4.04010789e-05     0.00000000e+00    
           4.65528399e-04     6.72274400e-05     0.00000000e+00    
           4.55964328e-04     9.29893067e-05     0.00000000e+00    
           4.39278665e-04     1.15512346e-04     0.00000000e+00    
           3.89291963e-04     1.46457198e-04     0.00000000e+00    
           3.58800666e-04     1.53122266e-04     0.00000000e+00    
           3.26769921e-04     1.54195746e-04     0.00000000e+00    
           2.96728569e-04     1.47518032e-04     0.00000000e+00    
           7.92678969e-04    -7.73366555e-05     0.00000000e+00    
           8.11927428e-04    -7.05157727e-05     0.00000000e+00    
           8.28512188e-04    -6.02050750e-05     0.00000000e+00    
           8.42681038e-04    -4.67938116e-05     0.00000000e+00    
           8.53015750e-04    -3.11412805e-05     0.00000000e+00    
           8.57667765e-04    -1.36047165e-05     0.00000000e+00    
           8.56051804e-04     5.25366750e-06     0.00000000e+00    
           8.47596268e-04     2.45608644e-05     0.00000000e+00    
           8.33515951e-04     4.19919488e-05     0.00000000e+00    
           8.15970241e-04     5.49403194e-05     0.00000000e+00    
           7.95054541e-04     6.31178846e-05     0.00000000e+00    
           7.46654405e-04     6.64090403e-05     0.00000000e+00    
           7.23467791e-04     6.04471679e-05     0.00000000e+00    
           7.03175145e-04     4.94251508e-05     0.00000000e+00    
           6.87702850e-04     3.34496290e-05     0.00000000e+00    
           6.77910401e-04     1.44055384e-05     0.00000000e+00    
           6.74524053e-04    -6.28472571e-06     0.00000000e+00    
           6.77809643e-04    -2.68210588e-05     0.00000000e+00    
           6.87575259e-04    -4.52005952e-05     0.00000000e+00    
           7.03353435e-04    -6.05255191e-05     0.00000000e+00    