<?xml version="1.0"?>
<VTKFile type="UnstructuredGrid" version="0.1">
  <UnstructuredGrid>
    <Piece NumberOfPoints="1034" NumberOfCells="1614">
      <Points>
        <DataArray type="Float32" NumberOfComponents="3">
           5.21582007e-01     5.11657000e-01     0.00000000e+00    
           5.07319987e-01     5.11657000e-01     0.00000000e+00    
           4.65243995e-01     5.17907977e-01     0.00000000e+00    
           4.65243995e-01     5.04921973e-01     0.00000000e+00    
           4.75246996e-01     5.11415005e-01     0.00000000e+00    
           5.33852994e-01     5.04921973e-01     0.00000000e+00    
           5.33852994e-01     5.17907977e-01     0.00000000e+00    
           4.83779997e-01     5.34618974e-01     0.00000000e+00    
           4.68984991e-01     5.34618974e-01     0.00000000e+00    
           4.76381987e-01     5.23841977e-01     0.00000000e+00    
           4.68984991e-01     4.66010004e-01     0.00000000e+00    
           4.83779997e-01     4.66010004e-01     0.00000000e+00    
           4.99920011e-01     5.34618974e-01     0.00000000e+00    
           4.89203990e-01     5.34618974e-01     0.00000000e+00    
           4.94562000e-01     5.22280991e-01     0.00000000e+00    
           4.89203990e-01     4.66010004e-01     0.00000000e+00    
           4.99920011e-01     4.66010004e-01     0.00000000e+00    
           5.32517016e-01     4.74112004e-01     0.00000000e+00    
           5.17961025e-01     4.74112004e-01     0.00000000e+00    
           5.33852994e-01     5.19801974e-01     0.00000000e+00    
           5.33852994e-01     5.29603004e-01     0.00000000e+00    
           5.19536972e-01     5.24702013e-01     0.00000000e+00    
           4.65243995e-01     5.29603004e-01     0.00000000e+00    
           4.65243995e-01     5.19801974e-01     0.00000000e+00    
           4.92487997e-01     5.17117977e-01     0.00000000e+00    
           4.76904988e-01     5.17117977e-01     0.00000000e+00    
           5.17996013e-01     5.27033985e-01     0.00000000e+00    
           5.04473984e-01     5.27033985e-01     0.00000000e+00    
           5.08446991e-01     4.83435005e-01     0.00000000e+00    
           4.94414002e-01     4.83435005e-01     0.00000000e+00    
           4.65243995e-01     4.83101994e-01     0.00000000e+00    
           4.65243995e-01     4.74415004e-01     0.00000000e+00    
           4.78336990e-01     4.78758007e-01     0.00000000e+00    
           5.33852994e-01     4.74415004e-01     0.00000000e+00    
           5.33852994e-01     4.83101994e-01     0.00000000e+00    
           4.80668008e-01     4.95810986e-01     0.00000000e+00    
           4.66084987e-01     4.95810986e-01     0.00000000e+00    
           4.93930012e-01     4.79214013e-01     0.00000000e+00    
           4.78967011e-01     4.79214013e-01     0.00000000e+00    
           5.09284973e-01     4.97658014e-01     0.00000000e+00    
           4.95503992e-01     4.97658014e-01     0.00000000e+00    
           5.33011973e-01     5.01751006e-01     0.00000000e+00    
           5.17829001e-01     5.01751006e-01     0.00000000e+00    
           4.95451003e-01     5.00564992e-01     0.00000000e+00    
           4.80922014e-01     5.00564992e-01     0.00000000e+00    
           5.25367022e-01     4.88312006e-01     0.00000000e+00    
           5.09521008e-01     4.88312006e-01     0.00000000e+00    
           4.65243995e-01     5.34618974e-01     0.00000000e+00    
           4.65243995e-01     4.66010004e-01     0.00000000e+00    
           5.33852994e-01     4.66010004e-01     0.00000000e+00    
           5.33852994e-01     5.34618974e-01     0.00000000e+00    
           5.21338999e-01     5.13502657e-01     0.00000000e+00    
           5.20626605e-01     5.15222490e-01     0.00000000e+00    
           5.19493401e-01     5.16699374e-01     0.00000000e+00    
           5.18016517e-01     5.17832637e-01     0.00000000e+00    
           5.16296625e-01     5.18545032e-01     0.00000000e+00    
           5.14451027e-01     5.18787980e-01     0.00000000e+00    
           5.12605369e-01     5.18545032e-01     0.00000000e+00    
           5.10885477e-01     5.17832637e-01     0.00000000e+00    
           5.09408593e-01     5.16699374e-01     0.00000000e+00    
           5.08275390e-01     5.15222490e-01     0.00000000e+00    
           5.07562995e-01     5.13502657e-01     0.00000000e+00    
           5.07562995e-01     5.09811342e-01     0.00000000e+00    
           5.08275390e-01     5.08091509e-01     0.00000000e+00    
           5.09408593e-01     5.06614625e-01     0.00000000e+00    
           5.10885477e-01     5.05481362e-01     0.00000000e+00    
           5.12605369e-01     5.04768968e-01     0.00000000e+00    
           5.14451027e-01     5.04526019e-01     0.00000000e+00    
           5.16296625e-01     5.04768968e-01     0.00000000e+00    
           5.18016517e-01     5.05481362e-01     0.00000000e+00    
           5.19493401e-01     5.06614625e-01     0.00000000e+00    
           5.20626605e-01     5.08091509e-01     0.00000000e+00    
           5.21338999e-01     5.09811342e-01     0.00000000e+00    
           4.66931671e-01     5.04409373e-01     0.00000000e+00    
           4.68693614e-01     5.04328012e-01     0.00000000e+00    
           4.70421344e-01     5.04682958e-01     0.00000000e+00    
           4.72008497e-01     5.05452335e-01     0.00000000e+00    
           4.73357379e-01     5.06588817e-01     0.00000000e+00    
           4.74384934e-01     5.08022368e-01     0.00000000e+00    
           4.75027919e-01     5.09664834e-01     0.00000000e+00    
           4.75028187e-01     5.13165236e-01     0.00000000e+00    
           4.74385172e-01     5.14807761e-01     0.00000000e+00    
           4.73357558e-01     5.16241372e-01     0.00000000e+00    
           4.72008646e-01     5.17377913e-01     0.00000000e+00    
           4.70421433e-01     5.18147290e-01     0.00000000e+00    
           4.68693614e-01     5.18502235e-01     0.00000000e+00    
           4.66931641e-01     5.18420875e-01     0.00000000e+00    
           5.32303810e-01     5.16964078e-01     0.00000000e+00    
           5.31043947e-01     5.15658796e-01     0.00000000e+00    
           5.30155540e-01     5.14077127e-01     0.00000000e+00    
           5.29696345e-01     5.12322068e-01     0.00000000e+00    
           5.29696345e-01     5.10507941e-01     0.00000000e+00    
           5.30155540e-01     5.08752882e-01     0.00000000e+00    
           5.31043947e-01     5.07171214e-01     0.00000000e+00    
           5.32303810e-01     5.05865932e-01     0.00000000e+00    
           4.68517244e-01     5.32760799e-01     0.00000000e+00    
           4.68509018e-01     5.30844629e-01     0.00000000e+00    
           4.68960851e-01     5.28982460e-01     0.00000000e+00    
           4.69846308e-01     5.27283132e-01     0.00000000e+00    
           4.71113682e-01     5.25845945e-01     0.00000000e+00    
           4.72688884e-01     5.24754822e-01     0.00000000e+00    
           4.74479854e-01     5.24073541e-01     0.00000000e+00    
           4.78284091e-01     5.24073601e-01     0.00000000e+00    
           4.80075032e-01     5.24754822e-01     0.00000000e+00    
           4.81650203e-01     5.25845885e-01     0.00000000e+00    
           4.82917547e-01     5.27283013e-01     0.00000000e+00    
           4.83803004e-01     5.28982282e-01     0.00000000e+00    
           4.84254897e-01     5.30844331e-01     0.00000000e+00    
           4.84246761e-01     5.32760441e-01     0.00000000e+00    
           4.82887864e-01     4.67691004e-01     0.00000000e+00    
           4.81620818e-01     4.69110936e-01     0.00000000e+00    
           4.80051905e-01     4.70188022e-01     0.00000000e+00    
           4.78271484e-01     4.70860153e-01     0.00000000e+00    
           4.76382166e-01     4.71088618e-01     0.00000000e+00    
           4.74492878e-01     4.70860243e-01     0.00000000e+00    
           4.72712427e-01     4.70188200e-01     0.00000000e+00    
           4.71143454e-01     4.69111174e-01     0.00000000e+00    
           4.69876349e-01     4.67691302e-01     0.00000000e+00    
           4.88103986e-01     5.33086061e-01     0.00000000e+00    
           4.87431526e-01     5.31323195e-01     0.00000000e+00    
           4.87231195e-01     5.29447019e-01     0.00000000e+00    
           4.87516224e-01     5.27581930e-01     0.00000000e+00    
           4.88267750e-01     5.25851250e-01     0.00000000e+00    
           4.89436030e-01     5.24369657e-01     0.00000000e+00    
           4.90943670e-01     5.23235261e-01     0.00000000e+00    
           4.92690891e-01     5.22523046e-01     0.00000000e+00    
           4.96432930e-01     5.22523701e-01     0.00000000e+00    
           4.98180002e-01     5.23235798e-01     0.00000000e+00    
           4.99687493e-01     5.24370134e-01     0.00000000e+00    
           5.00855684e-01     5.25851607e-01     0.00000000e+00    
           5.01607120e-01     5.27582109e-01     0.00000000e+00    
           5.01892149e-01     5.29447079e-01     0.00000000e+00    
           5.01691818e-01     5.31323016e-01     0.00000000e+00    
           5.01019418e-01     5.33085763e-01     0.00000000e+00    
           4.98371124e-01     4.67269689e-01     0.00000000e+00    
           4.96539861e-01     4.68064904e-01     0.00000000e+00    
           4.94562000e-01     4.68336672e-01     0.00000000e+00    
           4.92584139e-01     4.68064904e-01     0.00000000e+00    
           4.90752876e-01     4.67269689e-01     0.00000000e+00    
           5.32269001e-01     4.75995690e-01     0.00000000e+00    
           5.31541944e-01     4.77750987e-01     0.00000000e+00    
           5.30385315e-01     4.79258329e-01     0.00000000e+00    
           5.28877974e-01     4.80414927e-01     0.00000000e+00    
[...]
      <PointData>
        <DataArray type="Float32" Name="Displacement" NumberOfComponents="3">
           1.37771026e-03     1.43829122e-04     0.00000000e+00    
           1.37718488e-03     3.20022984e-04     0.00000000e+00    
           1.51561690e-03     4.64678560e-05     0.00000000e+00    
           1.29191903e-03     5.51349622e-05     0.00000000e+00    
           1.40582793e-03    -8.40437788e-05     0.00000000e+00    
           1.29191903e-03     5.51349622e-05     0.00000000e+00    
           1.51561690e-03     4.64678560e-05     0.00000000e+00    
           1.92542560e-03    -1.15547096e-04     0.00000000e+00    
           1.93212170e-03     1.40094984e-04     0.00000000e+00    
           1.71586976e-03     1.54144473e-05     0.00000000e+00    
          -6.78782599e-05     1.40094984e-04     0.00000000e+00    
          -7.45743964e-05    -1.15547096e-04     0.00000000e+00    
           1.83841912e-03    -1.08850843e-04     0.00000000e+00    
           1.84462534e-03    -5.90781528e-05     0.00000000e+00    
           1.75042241e-03    -8.81431406e-05     0.00000000e+00    
          -1.55374626e-04    -5.90781528e-05     0.00000000e+00    
          -1.61580901e-04    -1.08850843e-04     0.00000000e+00    
           4.00944205e-04    -6.15751705e-05     0.00000000e+00    
           3.98245465e-04     2.89488089e-04     0.00000000e+00    
           1.60412234e-03     1.28190377e-05     0.00000000e+00    
           1.80046586e-03     4.21229606e-06     0.00000000e+00    
           1.70464360e-03     2.52206228e-04     0.00000000e+00    
           1.80046586e-03     4.21229606e-06     0.00000000e+00    
           1.60412234e-03     1.28190377e-05     0.00000000e+00    
           1.54247123e-03    -1.81672425e-04     0.00000000e+00    
           1.53641822e-03     5.61692577e-05     0.00000000e+00    
           1.75330241e-03     1.82290198e-04     0.00000000e+00    
           1.75652350e-03     2.94359517e-04     0.00000000e+00    
           6.72499649e-04    -9.62921422e-06     0.00000000e+00    
           6.67418470e-04     1.00283840e-04     0.00000000e+00    
           6.09921932e-04     1.87657060e-04     0.00000000e+00    
           4.05152678e-04     1.90664883e-04     0.00000000e+00    
           5.14840707e-04    -8.58944768e-05     0.00000000e+00    
           4.05152678e-04     1.90664883e-04     0.00000000e+00    
           6.09921932e-04     1.87657060e-04     0.00000000e+00    
           1.06254034e-03    -1.12810812e-04     0.00000000e+00    
           1.06284313e-03     9.49203095e-05     0.00000000e+00    
           5.56643121e-04    -1.84364879e-04     0.00000000e+00    
           5.47465577e-04     2.06994628e-05     0.00000000e+00    
           1.07370457e-03     7.20380267e-05     0.00000000e+00    
           1.08210789e-03     5.04499840e-05     0.00000000e+00    
           1.19504053e-03     1.93598203e-06     0.00000000e+00    
           1.19921681e-03     2.28908466e-04     0.00000000e+00    
           1.10616337e-03    -1.14214505e-04     0.00000000e+00    
           1.11353211e-03    -2.67480755e-05     0.00000000e+00    
           8.19533598e-04     8.49718708e-05     0.00000000e+00    
           8.17940861e-04     4.05691215e-04     0.00000000e+00    
           2.00000009e-03     0.00000000e+00     0.00000000e+00    
           0.00000000e+00     0.00000000e+00     0.00000000e+00    
           0.00000000e+00     0.00000000e+00     0.00000000e+00    
           2.00000009e-03     0.00000000e+00     0.00000000e+00    
           1.40744576e-03     1.46836377e-04     0.00000000e+00    
           1.43435318e-03     1.56509355e-04     0.00000000e+00    
           1.45681039e-03     1.70699670e-04     0.00000000e+00    
           1.47348130e-03     1.88486098e-04     0.00000000e+00    
           1.48345740e-03     2.09321850e-04     0.00000000e+00    
           1.48702809e-03     2.31170037e-04     0.00000000e+00    
           1.48325448e-03     2.54362094e-04     0.00000000e+00    
           1.47184846e-03     2.76815321e-04     0.00000000e+00    
           1.45306636e-03     2.96085986e-04     0.00000000e+00    
           1.43023452e-03     3.09416209e-04     0.00000000e+00    
           1.40473153e-03     3.17702215e-04     0.00000000e+00    
           1.34951132e-03     3.16073420e-04     0.00000000e+00    
           1.32372288e-03     3.06976028e-04     0.00000000e+00    
           1.30185182e-03     2.93120655e-04     0.00000000e+00    
           1.28515472e-03     2.76439619e-04     0.00000000e+00    
           1.27486920e-03     2.57010601e-04     0.00000000e+00    
           1.27189187e-03     2.36209147e-04     0.00000000e+00    
           1.27457594e-03     2.15782740e-04     0.00000000e+00    
           1.28175260e-03     1.97894260e-04     0.00000000e+00    
           1.29438483e-03     1.81339914e-04     0.00000000e+00    
           1.31726731e-03     1.62269804e-04     0.00000000e+00    
           1.34681282e-03     1.48739462e-04     0.00000000e+00    
           1.28444366e-03     3.52451425e-05     0.00000000e+00    
           1.28288509e-03     1.29697555e-05     0.00000000e+00    
           1.28841400e-03    -1.11412201e-05     0.00000000e+00    
           1.30179198e-03    -3.48576395e-05     0.00000000e+00    
           1.32175558e-03    -5.58361571e-05     0.00000000e+00    
           1.34675414e-03    -7.15154965e-05     0.00000000e+00    
           1.37530197e-03    -8.08252662e-05     0.00000000e+00    
           1.43566309e-03    -8.08413606e-05     0.00000000e+00    
           1.46231288e-03    -7.13955233e-05     0.00000000e+00    
           1.48495636e-03    -5.71001547e-05     0.00000000e+00    
           1.50224520e-03    -3.86095999e-05     0.00000000e+00    
           1.51451479e-03    -1.76032645e-05     0.00000000e+00    
           1.52116595e-03     4.18190666e-06     0.00000000e+00    
           1.52128038e-03     2.58242726e-05     0.00000000e+00    
           1.50090770e-03     6.95381605e-05     0.00000000e+00    
           1.47651159e-03     9.10220551e-05     0.00000000e+00    
           1.44653232e-03     1.07151733e-04     0.00000000e+00    
           1.41453079e-03     1.14827460e-04     0.00000000e+00    
           1.38211343e-03     1.14228460e-04     0.00000000e+00    
           1.35149935e-03     1.06396583e-04     0.00000000e+00    
           1.32528041e-03     9.25006461e-05     0.00000000e+00    
           1.30560098e-03     7.42367120e-05     0.00000000e+00    
           1.89268577e-03     1.47442363e-04     0.00000000e+00    
           1.85246312e-03     1.46507300e-04     0.00000000e+00    
           1.81423093e-03     1.37707975e-04     0.00000000e+00    
           1.78102078e-03     1.21667392e-04     0.00000000e+00    
           1.75429904e-03     9.95043229e-05     0.00000000e+00    
           1.73406827e-03     7.30151878e-05     0.00000000e+00    
           1.72092812e-03     4.43715981e-05     0.00000000e+00    
           1.71803578e-03    -1.28299789e-05     0.00000000e+00    
           1.72924006e-03    -4.13326743e-05     0.00000000e+00    
           1.75108388e-03    -7.05148777e-05     0.00000000e+00    
           1.78135862e-03    -9.61577243e-05     0.00000000e+00    
           1.81530963e-03    -1.14178176e-04     0.00000000e+00    
           1.85069325e-03    -1.22731013e-04     0.00000000e+00    
           1.88783393e-03    -1.23102509e-04     0.00000000e+00    
          -3.92424990e-05    -1.00273981e-04     0.00000000e+00    
          -8.89168678e-06    -7.86656237e-05     0.00000000e+00    
           1.43211364e-05    -5.17926637e-05     0.00000000e+00    
           2.97814131e-05    -2.31211834e-05     0.00000000e+00    
           3.56175769e-05     7.83870291e-06     0.00000000e+00    
           3.34644719e-05     3.78610603e-05     0.00000000e+00    
           2.00578615e-05     7.06025821e-05     0.00000000e+00    
          -2.10483086e-06     1.00646474e-04     0.00000000e+00    
          -3.24555731e-05     1.24199578e-04     0.00000000e+00    
           1.83349347e-03    -5.31071673e-05     0.00000000e+00    
           1.82035705e-03    -5.01133436e-05     0.00000000e+00    
           1.80563319e-03    -4.98310474e-05     0.00000000e+00    
           1.79011817e-03    -5.23459530e-05     0.00000000e+00    
           1.77459710e-03    -5.80440137e-05     0.00000000e+00    
           1.76288839e-03    -6.58342979e-05     0.00000000e+00    
           1.75540370e-03    -7.41865297e-05     0.00000000e+00    
           1.75115129e-03    -8.13292718e-05     0.00000000e+00    
           1.75275002e-03    -9.51878537e-05     0.00000000e+00    
           1.75843434e-03    -1.02022932e-04     0.00000000e+00    
           1.76679029e-03    -1.07555272e-04     0.00000000e+00    
           1.77675742e-03    -1.12052017e-04     0.00000000e+00    
           1.78785063e-03    -1.14627459e-04     0.00000000e+00    
           1.80032197e-03    -1.16005234e-04     0.00000000e+00    
           1.81340112e-03    -1.15636263e-04     0.00000000e+00    
           1.82654755e-03    -1.13205067e-04     0.00000000e+00    
          -1.51304484e-04    -1.01885824e-04     0.00000000e+00    
          -1.44168487e-04    -9.40505633e-05     0.00000000e+00    
          -1.40544944e-04    -8.61146327e-05     0.00000000e+00    
          -1.41849392e-04    -7.70863626e-05     0.00000000e+00    
          -1.46156279e-04    -6.78565630e-05     0.00000000e+00    
           4.52332111e-04    -5.53706122e-05     0.00000000e+00    
           4.98343667e-04    -3.67396824e-05     0.00000000e+00    
           5.36472886e-04    -8.78175706e-06     0.00000000e+00    
           5.65693306e-04     2.60899815e-05     0.00000000e+00    
           5.85233502e-04     6.57902565e-05     0.00000000e+00    
           5.93507546e-04     1.08291257e-04     0.00000000e+00    
           5.90166717e-04     1.51077227e-04     0.00000000e+00    
           5.72671997e-04     1.92967200e-04     0.00000000e+00    
           5.40739915e-04     2.32152466e-04     0.00000000e+00    
           4.98115900e-04     2.63676629e-04     0.00000000e+00    
           4.49460815e-04     2.83205620e-04     0.00000000e+00    
           3.46950081e-04     2.83961272e-04     0.00000000e+00    
           2.99110368e-04     2.66785704e-04     0.00000000e+00    
           2.57953536e-04     2.39294415e-04     0.00000000e+00    
           2.26527816e-04     2.03125499e-04     0.00000000e+00    
           2.07188132e-04     1.61254429e-04     0.00000000e+00    
           2.00251292e-04     1.16792857e-04     0.00000000e+00    
           2.05354459e-04     7.17707444e-05     0.00000000e+00    
           2.25143172e-04     2.81541943e-05     0.00000000e+00    
           2.56818021e-04    -9.27235669e-06     0.00000000e+00    
           2.99135805e-04    -3.79214798e-05     0.00000000e+00    
           3.48567904e-04    -5.59810760e-05     0.00000000e+00    
           1.82728143e-03     2.63845541e-05     0.00000000e+00    
           1.84724270e-03     5.44975082e-05     0.00000000e+00    
           1.85920030e-03     8.75250189e-05     0.00000000e+00    
           1.86045340e-03     1.23789781e-04     0.00000000e+00    
           1.85069907e-03     1.60388474e-04     0.00000000e+00    
           1.83164212e-03     1.93235028e-04     0.00000000e+00    
           1.80498045e-03     2.19685331e-04     0.00000000e+00    
           1.77396229e-03     2.38445078e-04     0.00000000e+00    
           1.74043432e-03     2.49139004e-04     0.00000000e+00    
           1.66695460e-03     2.47799297e-04     0.00000000e+00    
           1.62999483e-03     2.35344676e-04     0.00000000e+00    
           1.59730995e-03     2.15494816e-04     0.00000000e+00    
           1.57170254e-03     1.89754472e-04     0.00000000e+00    
           1.55542756e-03     1.60055075e-04     0.00000000e+00    
           1.54758384e-03     1.28817803e-04     0.00000000e+00    
           1.54783158e-03     9.76938391e-05     0.00000000e+00    
           1.55593560e-03     6.88324362e-05     0.00000000e+00    
           1.57421222e-03     3.99818127e-05     0.00000000e+00    
           1.63603656e-03    -6.13411703e-06     0.00000000e+00    
           1.67058024e-03    -1.74590095e-05     0.00000000e+00    
           1.70600333e-03    -2.14076736e-05     0.00000000e+00    
           1.74039067e-03    -1.83745051e-05     0.00000000e+00    
           1.77219359e-03    -9.39314577e-06     0.00000000e+00    
           1.57688465e-03    -1.77694572e-04     0.00000000e+00    
           1.60923554e-03    -1.66395257e-04     0.00000000e+00    
           1.63846021e-03    -1.49407861e-04     0.00000000e+00    
           1.65973115e-03    -1.27615654e-04     0.00000000e+00    
           1.67448237e-03    -1.04175364e-04     0.00000000e+00    
           1.68164726e-03    -8.05863747e-05     0.00000000e+00    
           1.68179849e-03    -5.65423288e-05     0.00000000e+00    
           1.67599181e-03    -3.15295947e-05     0.00000000e+00    
           1.66051567e-03    -5.39963276e-06     0.00000000e+00    
           1.63546938e-03     2.03454765e-05     0.00000000e+00    
           1.60479045e-03     4.00989629e-05     0.00000000e+00    
           1.57131103e-03     5.18274610e-05     0.00000000e+00    
           1.50270504e-03     5.28870478e-05     0.00000000e+00    
           1.47222797e-03     4.27435043e-05     0.00000000e+00    
           1.44596398e-03     2.77192430e-05     0.00000000e+00    
           1.42457185e-03     7.22498316e-06     0.00000000e+00    
           1.40891015e-03    -1.74287925e-05     0.00000000e+00    
           1.39982626e-03    -4.44502184e-05     0.00000000e+00    
           1.39939412e-03    -7.31489999e-05     0.00000000e+00    
           1.40830351e-03    -1.01757054e-04     0.00000000e+00    
           1.42478361e-03    -1.28579297e-04     0.00000000e+00    
           1.44819985e-03    -1.51285014e-04     0.00000000e+00    
           1.47665234e-03    -1.68016661e-04     0.00000000e+00    
           1.50849286e-03    -1.78256654e-04     0.00000000e+00    
           1.77497370e-03     1.84516859e-04     0.00000000e+00    
           1.79525209e-03     1.91395477e-04     0.00000000e+00    
           1.81191915e-03     2.02439376e-04     0.00000000e+00    
           1.82299234e-03     2.16824046e-04     0.00000000e+00    
           1.82797725e-03     2.32535400e-04     0.00000000e+00    
           1.82719331e-03     2.48437165e-04     0.00000000e+00    
           1.82046904e-03     2.63746129e-04     0.00000000e+00    
           1.80868409e-03     2.76497478e-04     0.00000000e+00    
           1.79324602e-03     2.86211987e-04     0.00000000e+00    
           1.77580083e-03     2.91698205e-04     0.00000000e+00    
           1.73669029e-03     2.93232995e-04     0.00000000e+00    
           1.71759201e-03     2.88388488e-04     0.00000000e+00    
           1.70077675e-03     2.79548141e-04     0.00000000e+00    
           1.68734067e-03     2.67865020e-04     0.00000000e+00    
           1.67962431e-03     2.52688653e-04     0.00000000e+00    
           1.67881302e-03     2.35240077e-04     0.00000000e+00    
           1.68487243e-03     2.17351335e-04     0.00000000e+00    
           1.69738650e-03     2.01423434e-04     0.00000000e+00    
           1.71335170e-03     1.90378501e-04     0.00000000e+00    
           1.73186325e-03     1.84398988e-04     0.00000000e+00    
           6.92447764e-04    -8.27119857e-06     0.00000000e+00    
           7.10193824e-04    -3.87653745e-06     0.00000000e+00    
           7.24987651e-04     4.79974096e-06     0.00000000e+00    
           7.37113063e-04     1.71476222e-05     0.00000000e+00    
           7.43592042e-04     3.17845625e-05     0.00000000e+00    
           7.45520811e-04     4.64407130e-05     0.00000000e+00    
           7.43262528e-04     6.03598564e-05     0.00000000e+00    
           7.35278707e-04     7.41845215e-05     0.00000000e+00    
           7.22268014e-04     8.45256000e-05     0.00000000e+00    
           7.06587743e-04     9.15310957e-05     0.00000000e+00    
           6.87571242e-04     9.78091120e-05     0.00000000e+00    
           6.47577166e-04     9.85441584e-05     0.00000000e+00    
           6.30204566e-04     9.26349094e-05     0.00000000e+00    
           6.16111385e-04     8.35636456e-05     0.00000000e+00    
           6.05210196e-04     7.22617042e-05     0.00000000e+00    
           5.98185987e-04     5.94184712e-05     0.00000000e+00    
           5.95371239e-04     4.58040777e-05     0.00000000e+00    
           5.97985811e-04     3.20075087e-05     0.00000000e+00    
           6.05755136e-04     1.88802824e-05     0.00000000e+00    
           6.18350925e-04     8.01884289e-06     0.00000000e+00    
           6.34000404e-04    -9.77739546e-07     0.00000000e+00    
           6.52629184e-04    -6.98553913e-06     0.00000000e+00    
           3.75483709e-04     1.66222919e-04     0.00000000e+00    
           3.52446281e-04     1.36265793e-04     0.00000000e+00    
           3.38414888e-04     1.01370439e-04     0.00000000e+00    
           3.34754644e-04     6.36558470e-05     0.00000000e+00    
           3.42207582e-04     2.65006838e-05     0.00000000e+00    
           3.64415086e-04    -1.15196071e-05     0.00000000e+00    
           3.95727111e-04    -4.35576003e-05     0.00000000e+00    
           4.32952482e-04    -6.64632389e-05     0.00000000e+00    
           4.73366643e-04    -8.10944330e-05     0.00000000e+00    
           5.54893923e-04    -8.10376805e-05     0.00000000e+00    
           5.91645192e-04    -6.80248631e-05     0.00000000e+00    
           6.24575070e-04    -4.73614346e-05     0.00000000e+00    
           6.51862065e-04    -1.92774114e-05     0.00000000e+00    
           6.71243179e-04     1.51262366e-05     0.00000000e+00    
           6.79652672e-04     5.29214012e-05     0.00000000e+00    
           6.77186239e-04     9.14504490e-05     0.00000000e+00    
           6.64075604e-04     1.28566637e-04     0.00000000e+00    
           6.41046558e-04     1.61264514e-04     0.00000000e+00    
           5.71466342e-04     2.06865661e-04     0.00000000e+00    
           5.28684410e-04     2.17067631e-04     0.00000000e+00    
           4.84004238e-04     2.18495785e-04     0.00000000e+00    
           4.41884680e-04     2.08845478e-04     0.00000000e+00    
           1.09244708e-03    -1.09004308e-04     0.00000000e+00    
           1.11893832e-03    -9.91711058e-05     0.00000000e+00    
           1.14168541e-03    -8.41642395e-05     0.00000000e+00    
           1.16078311e-03    -6.47863635e-05     0.00000000e+00    
           1.17445202e-03    -4.21583645e-05     0.00000000e+00    
           1.18039607e-03    -1.70192106e-05     0.00000000e+00    
           1.17788196e-03     9.61407113e-06     0.00000000e+00    
           1.16631982e-03     3.63437466e-05     0.00000000e+00    
           1.14721921e-03     6.02455693e-05     0.00000000e+00    
           1.12324348e-03     7.81248091e-05     0.00000000e+00    
           1.09480997e-03     8.94087207e-05     0.00000000e+00    
           1.02991017e-03     9.31113318e-05     0.00000000e+00    
           9.99004580e-04     8.43922826e-05     0.00000000e+00    
           9.72041569e-04     6.87099455e-05     0.00000000e+00    
           9.51565453e-04     4.63807155e-05     0.00000000e+00    
           9.38708079e-04     1.99487349e-05     0.00000000e+00    
           9.34289303e-04    -8.69915675e-06     0.00000000e+00    
           9.38661222e-04    -3.71734714e-05     0.00000000e+00    
           9.51524649e-04    -6.28964917e-05     0.00000000e+00    
           9.72436974e-04    -8.44543247e-05     0.00000000e+00    