<?xml version="1.0"?>
<VTKFile type="UnstructuredGrid" version="0.1">
  <UnstructuredGrid>
    <Piece NumberOfPoints="1034" NumberOfCells="1614">
      <Points>
        <DataArray type="Float32" NumberOfComponents="3">
           5.21582007e-01     5.11657000e-01     0.00000000e+00    
           5.07319987e-01     5.11657000e-01     0.00000000e+00    
           4.65243995e-01     5.17907977e-01     0.00000000e+00    
           4.65243995e-01     5.04921973e-01     0.00000000e+00    
           4.75246996e-01     5.11415005e-01     0.00000000e+00    
           5.33852994e-01     5.04921973e-01     0.00000000e+00    
           5.33852994e-01     5.17907977e-01     0.00000000e+00    
           4.83779997e-01     5.34618974e-01     0.00000000e+00    
           4.68984991e-01     5.34618974e-01     0.00000000e+00    
           4.76381987e-01     5.23841977e-01     0.00000000e+00    
           4.68984991e-01     4.66010004e-01     0.00000000e+00    
           4.83779997e-01     4.66010004e-01     0.00000000e+00    
           4.99920011e-01     5.34618974e-01     0.00000000e+00    
           4.89203990e-01     5.34618974e-01     0.00000000e+00    
           4.94562000e-01     5.22280991e-01     0.00000000e+00    
           4.89203990e-01     4.66010004e-01     0.00000000e+00    
           4.99920011e-01     4.66010004e-01     0.00000000e+00    
           5.32517016e-01     4.74112004e-01     0.00000000e+00    
           5.17961025e-01     4.74112004e-01     0.00000000e+00    
           5.33852994e-01     5.19801974e-01     0.00000000e+00    
           5.33852994e-01     5.29603004e-01     0.00000000e+00    
           5.19536972e-01     5.24702013e-01     0.00000000e+00    
           4.65243995e-01     5.29603004e-01     0.00000000e+00    
           4.65243995e-01     5.19801974e-01     0.00000000e+00    
           4.92487997e-01     5.17117977e-01     0.00000000e+00    
           4.76904988e-01     5.17117977e-01     0.00000000e+00    
           5.17996013e-01     5.27033985e-01     0.00000000e+00    
           5.04473984e-01     5.27033985e-01     0.00000000e+00    
           5.08446991e-01     4.83435005e-01     0.00000000e+00    
           4.94414002e-01     4.83435005e-01     0.00000000e+00    
           4.65243995e-01     4.83101994e-01     0.00000000e+00    
           4.65243995e-01     4.74415004e-01     0.00000000e+00    
           4.78336990e-01     4.78758007e-01     0.00000000e+00    
           5.33852994e-01     4.74415004e-01     0.00000000e+00    
           5.33852994e-01     4.83101994e-01     0.00000000e+00    
           4.80668008e-01     4.95810986e-01     0.00000000e+00    
           4.66084987e-01     4.95810986e-01     0.00000000e+00    
           4.93930012e-01     4.79214013e-01     0.00000000e+00    
           4.78967011e-01     4.79214013e-01     0.00000000e+00    
           5.09284973e-01     4.97658014e-01     0.00000000e+00    
           4.95503992e-01     4.97658014e-01     0.00000000e+00    
           5.33011973e-01     5.01751006e-01     0.00000000e+00    
           5.17829001e-01     5.01751006e-01     0.00000000e+00    
           4.95451003e-01     5.00564992e-01     0.00000000e+00    
           4.80922014e-01     5.00564992e-01     0.00000000e+00    
           5.25367022e-01     4.88312006e-01     0.00000000e+00    
           5.09521008e-01     4.88312006e-01     0.00000000e+00    
           4.65243995e-01     5.34618974e-01     0.00000000e+00    
           4.65243995e-01     4.66010004e-01     0.00000000e+00    
           5.33852994e-01     4.66010004e-01     0.00000000e+00    
           5.33852994e-01     5.34618974e-01     0.00000000e+00    
           5.21338999e-01     5.13502657e-01     0.00000000e+00    
           5.20626605e-01     5.15222490e-01     0.00000000e+00    
           5.19493401e-01     5.16699374e-01     0.00000000e+00    
           5.18016517e-01     5.17832637e-01     0.00000000e+00    
           5.16296625e-01     5.18545032e-01     0.00000000e+00    
           5.14451027e-01     5.18787980e-01     0.00000000e+00    
           5.12605369e-01     5.18545032e-01     0.00000000e+00    
           5.10885477e-01     5.17832637e-01     0.00000000e+00    
           5.09408593e-01     5.16699374e-01     0.00000000e+00    
           5.08275390e-01     5.15222490e-01     0.00000000e+00    
           5.07562995e-01     5.13502657e-01     0.00000000e+00    
           5.07562995e-01     5.09811342e-01     0.00000000e+00    
           5.08275390e-01     5.08091509e-01     0.00000000e+00    
           5.09408593e-01     5.06614625e-01     0.00000000e+00    
           5.10885477e-01     5.05481362e-01     0.00000000e+00    
           5.12605369e-01     5.04768968e-01     0.00000000e+00    
           5.14451027e-01     5.04526019e-01     0.00000000e+00    
           5.16296625e-01     5.04768968e-01     0.00000000e+00    
           5.18016517e-01     5.05481362e-01     0.00000000e+00    
           5.19493401e-01     5.06614625e-01     0.00000000e+00    
           5.20626605e-01     5.08091509e-01     0.00000000e+00    
           5.21338999e-01     5.09811342e-01     0.00000000e+00    
           4.66931671e-01     5.04409373e-01     0.00000000e+00    
           4.68693614e-01     5.04328012e-01     0.00000000e+00    
           4.70421344e-01     5.04682958e-01     0.00000000e+00    
           4.72008497e-01     5.05452335e-01     0.00000000e+00    
           4.73357379e-01     5.06588817e-01     0.00000000e+00    
           4.74384934e-01     5.08022368e-01     0.00000000e+00    
           4.75027919e-01     5.09664834e-01     0.00000000e+00    
           4.75028187e-01     5.13165236e-01     0.00000000e+00    
           4.74385172e-01     5.14807761e-01     0.00000000e+00    
           4.73357558e-01     5.16241372e-01     0.00000000e+00    
           4.72008646e-01     5.17377913e-01     0.00000000e+00    
           4.70421433e-01     5.18147290e-01     0.00000000e+00    
           4.68693614e-01     5.18502235e-01     0.00000000e+00    
           4.66931641e-01     5.18420875e-01     0.00000000e+00    
           5.32303810e-01     5.16964078e-01     0.00000000e+00    
           5.31043947e-01     5.15658796e-01     0.00000000e+00    
           5.30155540e-01     5.14077127e-01     0.00000000e+00    
           5.29696345e-01     5.12322068e-01     0.00000000e+00    
           5.29696345e-01     5.10507941e-01     0.00000000e+00    
           5.30155540e-01     5.08752882e-01     0.00000000e+00    
           5.31043947e-01     5.07171214e-01     0.00000000e+00    
           5.32303810e-01     5.05865932e-01     0.00000000e+00    
           4.68517244e-01     5.32760799e-01     0.00000000e+00    
           4.68509018e-01     5.30844629e-01     0.00000000e+00    
           4.68960851e-01     5.28982460e-01     0.00000000e+00    
           4.69846308e-01     5.27283132e-01     0.00000000e+00    
           4.71113682e-01     5.25845945e-01     0.00000000e+00    
           4.72688884e-01     5.24754822e-01     0.00000000e+00    
           4.74479854e-01     5.24073541e-01     0.00000000e+00    
           4.78284091e-01     5.24073601e-01     0.00000000e+00    
           4.80075032e-01     5.24754822e-01     0.00000000e+00    
           4.81650203e-01     5.25845885e-01     0.00000000e+00    
           4.82917547e-01     5.27283013e-01     0.00000000e+00    
           4.83803004e-01     5.28982282e-01     0.00000000e+00    
           4.84254897e-01     5.30844331e-01     0.00000000e+00    
           4.84246761e-01     5.32760441e-01     0.00000000e+00    
           4.82887864e-01     4.67691004e-01     0.00000000e+00    
           4.81620818e-01     4.69110936e-01     0.00000000e+00    
           4.80051905e-01     4.70188022e-01     0.00000000e+00    
           4.78271484e-01     4.70860153e-01     0.00000000e+00    
           4.76382166e-01     4.71088618e-01     0.00000000e+00    
           4.74492878e-01     4.70860243e-01     0.00000000e+00    
           4.72712427e-01     4.70188200e-01     0.00000000e+00    
           4.71143454e-01     4.69111174e-01     0.00000000e+00    
           4.69876349e-01     4.67691302e-01     0.00000000e+00    
           4.88103986e-01     5.33086061e-01     0.00000000e+00    
           4.87431526e-01     5.31323195e-01     0.00000000e+00    
           4.87231195e-01     5.29447019e-01     0.00000000e+00    
           4.87516224e-01     5.27581930e-01     0.00000000e+00    
           4.88267750e-01     5.25851250e-01     0.00000000e+00    
           4.89436030e-01     5.24369657e-01     0.00000000e+00    
           4.90943670e-01     5.23235261e-01     0.00000000e+00    
           4.92690891e-01     5.22523046e-01     0.00000000e+00    
           4.96432930e-01     5.22523701e-01     0.00000000e+00    
           4.98180002e-01     5.23235798e-01     0.00000000e+00    
           4.99687493e-01     5.24370134e-01     0.00000000e+00    
           5.00855684e-01     5.25851607e-01     0.00000000e+00    
           5.01607120e-01     5.27582109e-01     0.00000000e+00    
           5.01892149e-01     5.29447079e-01     0.00000000e+00    
           5.01691818e-01     5.31323016e-01     0.00000000e+00    
           5.01019418e-01     5.33085763e-01     0.00000000e+00    
           4.98371124e-01     4.67269689e-01     0.00000000e+00    
           4.96539861e-01     4.68064904e-01     0.00000000e+00    
           4.94562000e-01     4.68336672e-01     0.00000000e+00    
           4.92584139e-01     4.68064904e-01     0.00000000e+00    
           4.90752876e-01     4.67269689e-01     0.00000000e+00    
           5.32269001e-01     4.75995690e-01     0.00000000e+00    
           5.31541944e-01     4.77750987e-01     0.00000000e+00    
           5.30385315e-01     4.79258329e-01     0.00000000e+00    
           5.28877974e-01     4.80414927e-01     0.00000000e+00    
[...]
      <PointData>
        <DataArray type="Float32" Name="Displacement" NumberOfComponents="3">
           8.03276314e-04     4.43535537e-05     0.00000000e+00    
           8.02990049e-04     1.51446409e-04     0.00000000e+00    
           8.87886912e-04     1.10455803e-05     0.00000000e+00    
           7.49248895e-04     1.60676555e-05     0.00000000e+00    
           8.20105954e-04    -6.09942545e-05     0.00000000e+00    
           7.49248895e-04     1.60676555e-05     0.00000000e+00    
           8.87886912e-04     1.10455803e-05     0.00000000e+00    
           1.16505078e-03    -6.64419786e-05     0.00000000e+00    
           1.16828515e-03     8.78411302e-05     0.00000000e+00    
           1.03152252e-03     1.40095508e-05     0.00000000e+00    
          -3.17148224e-05     8.78411302e-05     0.00000000e+00    
          -3.49491893e-05    -6.64419786e-05     0.00000000e+00    
           1.10973779e-03    -6.17027254e-05     0.00000000e+00    
           1.11446867e-03    -2.20900420e-05     0.00000000e+00    
           1.03896612e-03    -4.62931130e-05     0.00000000e+00    
          -8.55313265e-05    -2.20900420e-05     0.00000000e+00    
          -9.02622487e-05    -6.17027254e-05     0.00000000e+00    
           2.05631091e-04    -3.72837640e-05     0.00000000e+00    
           2.02810275e-04     1.38424541e-04     0.00000000e+00    
           9.56552220e-04    -9.45147622e-06     0.00000000e+00    
           1.07818400e-03    -1.38319365e-05     0.00000000e+00    
           1.01932790e-03     1.28216896e-04     0.00000000e+00    
           1.07818400e-03    -1.38319365e-05     0.00000000e+00    
           9.56552220e-04    -9.45147622e-06     0.00000000e+00    
           9.12043732e-04    -9.91138004e-05     0.00000000e+00    
           9.06383910e-04     5.10168284e-05     0.00000000e+00    
           1.05022651e-03     6.91701644e-05     0.00000000e+00    
           1.05327740e-03     1.26470011e-04     0.00000000e+00    
           3.70810769e-04    -1.08382310e-05     0.00000000e+00    
           3.64185573e-04     5.82989414e-05     0.00000000e+00    
           3.13641445e-04     9.78778116e-05     0.00000000e+00    
           2.03534888e-04     9.84078506e-05     0.00000000e+00    
           2.64287984e-04    -3.96740325e-05     0.00000000e+00    
           2.03534888e-04     9.84078506e-05     0.00000000e+00    
           3.13641445e-04     9.78778116e-05     0.00000000e+00    
           6.00057829e-04    -6.47921188e-05     0.00000000e+00    
           6.00634259e-04     4.96663815e-05     0.00000000e+00    
           2.91709643e-04    -8.57247724e-05     0.00000000e+00    
           2.82483408e-04     2.30332553e-05     0.00000000e+00    
           5.97128761e-04     2.90326971e-05     0.00000000e+00    
           6.05277717e-04     3.19161336e-05     0.00000000e+00    
           6.85722858e-04    -2.52610043e-05     0.00000000e+00    
           6.88356929e-04     1.02215068e-04     0.00000000e+00    
           6.21739775e-04    -4.57942879e-05     0.00000000e+00    
           6.27576897e-04    -2.86565341e-06     0.00000000e+00    
           4.51548694e-04     2.13579842e-05     0.00000000e+00    
           4.50249179e-04     1.86449426e-04     0.00000000e+00    
           1.20000006e-03     0.00000000e+00     0.00000000e+00    
           0.00000000e+00     0.00000000e+00     0.00000000e+00    
           0.00000000e+00     0.00000000e+00     0.00000000e+00    
           1.20000006e-03     0.00000000e+00     0.00000000e+00    
           8.23054812e-04     4.61159907e-05     0.00000000e+00    
           8.40900466e-04     5.21358124e-05     0.00000000e+00    
           8.55786551e-04     6.07562361e-05     0.00000000e+00    
           8.66812421e-04     7.12848996e-05     0.00000000e+00    
           8.73512181e-04     8.36301770e-05     0.00000000e+00    
           8.76150501e-04     9.66581065e-05     0.00000000e+00    
           8.73898098e-04     1.10849818e-04     0.00000000e+00    
           8.66248214e-04     1.24987098e-04     0.00000000e+00    
           8.53664649e-04     1.37127092e-04     0.00000000e+00    
           8.38399341e-04     1.45387676e-04     0.00000000e+00    
           8.21238384e-04     1.50240376e-04     0.00000000e+00    
           7.84736010e-04     1.48715131e-04     0.00000000e+00    
           7.67729245e-04     1.42819641e-04     0.00000000e+00    
           7.53487402e-04     1.34151443e-04     0.00000000e+00    
           7.42880802e-04     1.23806705e-04     0.00000000e+00    
           7.36786227e-04     1.12134920e-04     0.00000000e+00    
           7.35317648e-04     9.99934418e-05     0.00000000e+00    
           7.37141992e-04     8.84401306e-05     0.00000000e+00    
           7.41295982e-04     7.86791643e-05     0.00000000e+00    
           7.48254301e-04     6.98203658e-05     0.00000000e+00    
           7.62830314e-04     5.71920209e-05     0.00000000e+00    
           7.82584131e-04     4.78355068e-05     0.00000000e+00    
           7.45274534e-04     6.14804549e-06     0.00000000e+00    
           7.44470279e-04    -5.62382456e-06     0.00000000e+00    
           7.47810991e-04    -1.90757728e-05     0.00000000e+00    
           7.56095396e-04    -3.27568268e-05     0.00000000e+00    
           7.68413884e-04    -4.50338302e-05     0.00000000e+00    
           7.83807423e-04    -5.40917172e-05     0.00000000e+00    
           8.01340444e-04    -5.93030672e-05     0.00000000e+00    
           8.38327280e-04    -5.91052230e-05     0.00000000e+00    
           8.54356331e-04    -5.38809290e-05     0.00000000e+00    
           8.67932336e-04    -4.60328993e-05     0.00000000e+00    
           8.78253719e-04    -3.57868885e-05     0.00000000e+00    
           8.85787769e-04    -2.41379785e-05     0.00000000e+00    
           8.90161085e-04    -1.22075480e-05     0.00000000e+00    
           8.90693686e-04    -3.62285618e-07     0.00000000e+00    
           8.79109488e-04     2.45354331e-05     0.00000000e+00    
           8.63628578e-04     3.74516167e-05     0.00000000e+00    
           8.44476745e-04     4.71730491e-05     0.00000000e+00    
           8.24184332e-04     5.15224892e-05     0.00000000e+00    
           8.03671312e-04     5.06454271e-05     0.00000000e+00    
           7.84261792e-04     4.52699787e-05     0.00000000e+00    
           7.67989899e-04     3.65973319e-05     0.00000000e+00    
           7.56656053e-04     2.59364842e-05     0.00000000e+00    
           1.14273827e-03     9.20257153e-05     0.00000000e+00    
           1.11695461e-03     9.12601827e-05     0.00000000e+00    
           1.09283475e-03     8.58378553e-05     0.00000000e+00    
           1.07216358e-03     7.63085336e-05     0.00000000e+00    
           1.05569209e-03     6.31518778e-05     0.00000000e+00    
           1.04313367e-03     4.74774060e-05     0.00000000e+00    
           1.03482965e-03     3.07156770e-05     0.00000000e+00    
           1.03251031e-03    -2.18886998e-06     0.00000000e+00    
           1.03925331e-03    -1.91410927e-05     0.00000000e+00    
           1.05300627e-03    -3.73107323e-05     0.00000000e+00    
           1.07231585e-03    -5.37916167e-05     0.00000000e+00    
           1.09406537e-03    -6.53471216e-05     0.00000000e+00    
           1.11679814e-03    -7.08620864e-05     0.00000000e+00    
           1.14074687e-03    -7.11346656e-05     0.00000000e+00    
          -1.20198529e-05    -5.68990545e-05     0.00000000e+00    
           7.61679985e-06    -4.34805625e-05     0.00000000e+00    
           2.26008833e-05    -2.73665628e-05     0.00000000e+00    
           3.25153342e-05    -1.07480764e-05     0.00000000e+00    
           3.63323270e-05     7.11467555e-06     0.00000000e+00    
           3.51193194e-05     2.48465531e-05     0.00000000e+00    
           2.62940612e-05     4.48794381e-05     0.00000000e+00    
           1.12814196e-05     6.36571131e-05     0.00000000e+00    
          -8.78742776e-06     7.83584474e-05     0.00000000e+00    
           1.10538618e-03    -1.73291592e-05     0.00000000e+00    
           1.09492266e-03    -1.49454572e-05     0.00000000e+00    
           1.08324084e-03    -1.47635546e-05     0.00000000e+00    
           1.07074680e-03    -1.68766765e-05     0.00000000e+00    
           1.05788757e-03    -2.19742287e-05     0.00000000e+00    
           1.04789692e-03    -2.89048730e-05     0.00000000e+00    
           1.04186952e-03    -3.57917124e-05     0.00000000e+00    
           1.03889906e-03    -4.13216694e-05     0.00000000e+00    
           1.04120502e-03    -5.14428284e-05     0.00000000e+00    
           1.04578421e-03    -5.62284804e-05     0.00000000e+00    
           1.05233537e-03    -6.01069914e-05     0.00000000e+00    
           1.06005964e-03    -6.32013689e-05     0.00000000e+00    
           1.06848555e-03    -6.49993162e-05     0.00000000e+00    
           1.07822509e-03    -6.61342201e-05     0.00000000e+00    
           1.08869001e-03    -6.61919476e-05     0.00000000e+00    
           1.09961489e-03    -6.48631612e-05     0.00000000e+00    
          -8.15682288e-05    -5.64695911e-05     0.00000000e+00    
          -7.54844950e-05    -5.02596522e-05     0.00000000e+00    
          -7.23766789e-05    -4.38603274e-05     0.00000000e+00    
          -7.32676053e-05    -3.65927372e-05     0.00000000e+00    
          -7.76322195e-05    -2.90250682e-05     0.00000000e+00    
           2.32876060e-04    -3.40624683e-05     0.00000000e+00    
           2.56823201e-04    -2.46539639e-05     0.00000000e+00    
           2.76305480e-04    -1.13988517e-05     0.00000000e+00    
           2.91503267e-04     4.79688197e-06     0.00000000e+00    
           3.02310364e-04     2.36145024e-05     0.00000000e+00    
           3.07561335e-04     4.40502481e-05     0.00000000e+00    
           3.06973729e-04     6.50253642e-05     0.00000000e+00    
           2.98299739e-04     8.63298774e-05     0.00000000e+00    
           2.80969922e-04     1.07336724e-04     0.00000000e+00    
           2.57447566e-04     1.24529630e-04     0.00000000e+00    
           2.30733465e-04     1.35098249e-04     0.00000000e+00    
           1.74994377e-04     1.35694791e-04     0.00000000e+00    
           1.49132422e-04     1.27000414e-04     0.00000000e+00    
           1.27054038e-04     1.13208800e-04     0.00000000e+00    
           1.10273628e-04     9.51459006e-05     0.00000000e+00    
           9.99904150e-05     7.41086697e-05     0.00000000e+00    
           9.64392311e-05     5.15254687e-05     0.00000000e+00    
           9.97651732e-05     2.81653665e-05     0.00000000e+00    
           1.11145055e-04     5.59462705e-06     0.00000000e+00    
           1.28582993e-04    -1.30331882e-05     0.00000000e+00    
           1.51238288e-04    -2.66229144e-05     0.00000000e+00    
           1.77651687e-04    -3.49743750e-05     0.00000000e+00    
           1.09411695e-03    -1.19488686e-06     0.00000000e+00    
           1.10604393e-03     1.46642442e-05     0.00000000e+00    
           1.11341046e-03     3.32865711e-05     0.00000000e+00    
           1.11427193e-03     5.41201880e-05     0.00000000e+00    
           1.10802427e-03     7.56324444e-05     0.00000000e+00    
           1.09609531e-03     9.48777742e-05     0.00000000e+00    
           1.07974198e-03     1.10117784e-04     0.00000000e+00    
           1.06096838e-03     1.20749442e-04     0.00000000e+00    
           1.04090897e-03     1.26588624e-04     0.00000000e+00    
           9.96204093e-04     1.25638049e-04     0.00000000e+00    
           9.73273360e-04     1.18347270e-04     0.00000000e+00    
           9.53043462e-04     1.06781081e-04     0.00000000e+00    
           9.37400619e-04     9.20554448e-05     0.00000000e+00    
           9.27570742e-04     7.51402767e-05     0.00000000e+00    
           9.22652078e-04     5.75136473e-05     0.00000000e+00    
           9.22394567e-04     3.99516648e-05     0.00000000e+00    
           9.26685403e-04     2.36556079e-05     0.00000000e+00    
           9.37654520e-04     6.84487486e-06     0.00000000e+00    
           9.76777868e-04    -2.08450710e-05     0.00000000e+00    
           9.98542993e-04    -2.73800033e-05     0.00000000e+00    
           1.02064770e-03    -2.93587746e-05     0.00000000e+00    
           1.04186905e-03    -2.71790086e-05     0.00000000e+00    
           1.06123171e-03    -2.17048255e-05     0.00000000e+00    
           9.35209566e-04    -9.61644691e-05     0.00000000e+00    
           9.57157346e-04    -8.81135275e-05     0.00000000e+00    
           9.76764946e-04    -7.67027886e-05     0.00000000e+00    
           9.90458415e-04    -6.27892223e-05     0.00000000e+00    
           9.99518088e-04    -4.87497018e-05     0.00000000e+00    
           1.00343686e-03    -3.50430309e-05     0.00000000e+00    
           1.00336922e-03    -2.08725851e-05     0.00000000e+00    
           9.99813434e-04    -5.70520615e-06     0.00000000e+00    
           9.89633612e-04     1.07658725e-05     0.00000000e+00    
           9.72857291e-04     2.75708535e-05     0.00000000e+00    
           9.52133560e-04     4.05863102e-05     0.00000000e+00    
           9.29691945e-04     4.81972784e-05     0.00000000e+00    
           8.84067267e-04     4.89660670e-05     0.00000000e+00    
           8.64210655e-04     4.27169434e-05     0.00000000e+00    
           8.47181887e-04     3.37670135e-05     0.00000000e+00    
           8.33147380e-04     2.13377571e-05     0.00000000e+00    
           8.22559057e-04     6.21201252e-06     0.00000000e+00    
           8.15981417e-04    -1.05626586e-05     0.00000000e+00    
           8.15224135e-04    -2.87294479e-05     0.00000000e+00    
           8.20955844e-04    -4.71124549e-05     0.00000000e+00    
           8.32148595e-04    -6.46087647e-05     0.00000000e+00    
           8.48063210e-04    -7.95588130e-05     0.00000000e+00    
           8.67425755e-04    -9.04977787e-05     0.00000000e+00    
           8.89080984e-04    -9.71029731e-05     0.00000000e+00    
           1.06308411e-03     7.02920079e-05     0.00000000e+00    
           1.07535324e-03     7.39012685e-05     0.00000000e+00    
           1.08551863e-03     7.97842149e-05     0.00000000e+00    
           1.09231425e-03     8.73488025e-05     0.00000000e+00    
           1.09529181e-03     9.56013391e-05     0.00000000e+00    
           1.09458179e-03     1.03973594e-04     0.00000000e+00    
           1.09024683e-03     1.11867565e-04     0.00000000e+00    
           1.08304247e-03     1.18287928e-04     0.00000000e+00    
           1.07390631e-03     1.22906553e-04     0.00000000e+00    
           1.06420415e-03     1.25061473e-04     0.00000000e+00    
           1.04173261e-03     1.26508312e-04     0.00000000e+00    
           1.03016442e-03     1.24855782e-04     0.00000000e+00    
           1.01970718e-03     1.21031982e-04     0.00000000e+00    
           1.01109466e-03     1.15627794e-04     0.00000000e+00    
           1.00591383e-03     1.07758569e-04     0.00000000e+00    
           1.00513780e-03     9.80764162e-05     0.00000000e+00    
           1.00912189e-03     8.76527338e-05     0.00000000e+00    
           1.01725245e-03     7.85958546e-05     0.00000000e+00    
           1.02687709e-03     7.28286686e-05     0.00000000e+00    
           1.03764120e-03     7.01317113e-05     0.00000000e+00    
           3.84671817e-04    -9.97441384e-06     0.00000000e+00    
           3.96794843e-04    -7.52741835e-06     0.00000000e+00    
           4.06844192e-04    -2.33264109e-06     0.00000000e+00    
           4.15463350e-04     5.61092111e-06     0.00000000e+00    
           4.20072029e-04     1.52114417e-05     0.00000000e+00    
           4.21396806e-04     2.45152642e-05     0.00000000e+00    
           4.19773656e-04     3.32499549e-05     0.00000000e+00    
           4.13978851e-04     4.22946032e-05     0.00000000e+00    
           4.04168677e-04     4.88554106e-05     0.00000000e+00    
           3.92444286e-04     5.34282954e-05     0.00000000e+00    
           3.78588127e-04     5.70980992e-05     0.00000000e+00    
           3.50433489e-04     5.69780022e-05     0.00000000e+00    
           3.38818470e-04     5.31031510e-05     0.00000000e+00    
           3.29900038e-04     4.74769258e-05     0.00000000e+00    
           3.23087908e-04     4.05208739e-05     0.00000000e+00    
           3.18540173e-04     3.24759021e-05     0.00000000e+00    
           3.16672929e-04     2.37873010e-05     0.00000000e+00    
           3.18674342e-04     1.48250829e-05     0.00000000e+00    
           3.24214925e-04     6.34457956e-06     0.00000000e+00    
           3.33106727e-04    -5.63547758e-07     0.00000000e+00    
           3.44212109e-04    -6.02509454e-06     0.00000000e+00    
           3.57055047e-04    -9.41105100e-06     0.00000000e+00    
           1.87941521e-04     8.70274089e-05     0.00000000e+00    
           1.75368797e-04     7.33872439e-05     0.00000000e+00    
           1.67151215e-04     5.69268377e-05     0.00000000e+00    
           1.64275203e-04     3.85573221e-05     0.00000000e+00    
           1.67882274e-04     1.95741159e-05     0.00000000e+00    
           1.80447139e-04    -8.16881368e-07     0.00000000e+00    
           1.98548485e-04    -1.82166859e-05     0.00000000e+00    
           2.19718670e-04    -3.02498447e-05     0.00000000e+00    
           2.42009817e-04    -3.73969342e-05     0.00000000e+00    
           2.85461429e-04    -3.74343035e-05     0.00000000e+00    
           3.04658024e-04    -3.16047335e-05     0.00000000e+00    
           3.22246226e-04    -2.17439447e-05     0.00000000e+00    
           3.37168312e-04    -7.78541289e-06     0.00000000e+00    
           3.47963825e-04     9.86694340e-06     0.00000000e+00    
           3.52502713e-04     2.94148558e-05     0.00000000e+00    
           3.50961287e-04     4.93322659e-05     0.00000000e+00    
           3.43545631e-04     6.83651306e-05     0.00000000e+00    
           3.30721959e-04     8.48772179e-05     0.00000000e+00    
           2.92592827e-04     1.07135515e-04     0.00000000e+00    
           2.69625860e-04     1.11526038e-04     0.00000000e+00    
           2.45488074e-04     1.12204609e-04     0.00000000e+00    
           2.22882809e-04     1.07289947e-04     0.00000000e+00    
           6.17339101e-04    -6.23537708e-05     0.00000000e+00    
           6.32440497e-04    -5.71913115e-05     0.00000000e+00    
           6.45539141e-04    -4.94363412e-05     0.00000000e+00    
           6.56867342e-04    -3.92246075e-05     0.00000000e+00    
           6.65209256e-04    -2.73015648e-05     0.00000000e+00    
           6.69035420e-04    -1.38761379e-05     0.00000000e+00    
           6.67867542e-04     7.08024174e-07     0.00000000e+00    
           6.61198981e-04     1.58294479e-05     0.00000000e+00    
           6.50041155e-04     2.95593109e-05     0.00000000e+00    
           6.36170967e-04     3.97297044e-05     0.00000000e+00    
           6.19575148e-04     4.61758973e-05     0.00000000e+00    
           5.80893829e-04     4.90763050e-05     0.00000000e+00    
           5.62291709e-04     4.45651240e-05     0.00000000e+00    
           5.45965333e-04     3.60685881e-05     0.00000000e+00    
           5.33454877e-04     2.36389969e-05     0.00000000e+00    
           5.25456911e-04     8.72781675e-06     0.00000000e+00    
           5.22692397e-04    -7.52153665e-06     0.00000000e+00    
           5.25386189e-04    -2.36468786e-05     0.00000000e+00    
           5.33338462e-04    -3.79355879e-05     0.00000000e+00    
           5.46074996e-04    -4.98330592e-05     0.00000000e+00    