<?xml version="1.0"?>
<VTKFile type="UnstructuredGrid" version="0.1">
  <UnstructuredGrid>
    <Piece NumberOfPoints="1034" NumberOfCells="1614">
      <Points>
        <DataArray type="Float32" NumberOfComponents="3">
           5.21582007e-01     5.11657000e-01     0.00000000e+00    
           5.07319987e-01     5.11657000e-01     0.00000000e+00    
           4.65243995e-01     5.17907977e-01     0.00000000e+00    
           4.65243995e-01     5.04921973e-01     0.00000000e+00    
           4.75246996e-01     5.11415005e-01     0.00000000e+00    
           5.33852994e-01     5.04921973e-01     0.00000000e+00    
           5.33852994e-01     5.17907977e-01     0.00000000e+00    
           4.83779997e-01     5.34618974e-01     0.00000000e+00    
           4.68984991e-01     5.34618974e-01     0.00000000e+00    
           4.76381987e-01     5.23841977e-01     0.00000000e+00    
           4.68984991e-01     4.66010004e-01     0.00000000e+00    
           4.83779997e-01     4.66010004e-01     0.00000000e+00    
           4.99920011e-01     5.34618974e-01     0.00000000e+00    
           4.89203990e-01     5.34618974e-01     0.00000000e+00    
           4.94562000e-01     5.22280991e-01     0.00000000e+00    
           4.89203990e-01     4.66010004e-01     0.00000000e+00    
           4.99920011e-01     4.66010004e-01     0.00000000e+00    
           5.32517016e-01     4.74112004e-01     0.00000000e+00    
           5.17961025e-01     4.74112004e-01     0.00000000e+00    
           5.33852994e-01     5.19801974e-01     0.00000000e+00    
           5.33852994e-01     5.29603004e-01     0.00000000e+00    
           5.19536972e-01     5.24702013e-01     0.00000000e+00    
           4.65243995e-01     5.29603004e-01     0.00000000e+00    
           4.65243995e-01     5.19801974e-01     0.00000000e+00    
           4.92487997e-01     5.17117977e-01     0.00000000e+00    
           4.76904988e-01     5.17117977e-01     0.00000000e+00    
           5.17996013e-01     5.27033985e-01     0.00000000e+00    
           5.04473984e-01     5.27033985e-01     0.00000000e+00    
           5.08446991e-01     4.83435005e-01     0.00000000e+00    
           4.94414002e-01     4.83435005e-01     0.00000000e+00    
           4.65243995e-01     4.83101994e-01     0.00000000e+00    
           4.65243995e-01     4.74415004e-01     0.00000000e+00    
           4.78336990e-01     4.78758007e-01     0.00000000e+00    
           5.33852994e-01     4.74415004e-01     0.00000000e+00    
           5.33852994e-01     4.83101994e-01     0.00000000e+00    
           4.80668008e-01     4.95810986e-01     0.00000000e+00    
           4.66084987e-01     4.95810986e-01     0.00000000e+00    
           4.93930012e-01     4.79214013e-01     0.00000000e+00    
           4.78967011e-01     4.79214013e-01     0.00000000e+00    
           5.09284973e-01     4.97658014e-01     0.00000000e+00    
           4.95503992e-01     4.97658014e-01     0.00000000e+00    
           5.33011973e-01     5.01751006e-01     0.00000000e+00    
           5.17829001e-01     5.01751006e-01     0.00000000e+00    
           4.95451003e-01     5.00564992e-01     0.00000000e+00    
           4.80922014e-01     5.00564992e-01     0.00000000e+00    
           5.25367022e-01     4.88312006e-01     0.00000000e+00    
           5.09521008e-01     4.88312006e-01     0.00000000e+00    
           4.65243995e-01     5.34618974e-01     0.00000000e+00    
           4.65243995e-01     4.66010004e-01     0.00000000e+00    
           5.33852994e-01     4.66010004e-01     0.00000000e+00    
           5.33852994e-01     5.34618974e-01     0.00000000e+00    
           5.21338999e-01     5.13502657e-01     0.00000000e+00    
           5.20626605e-01     5.15222490e-01     0.00000000e+00    
           5.19493401e-01     5.16699374e-01     0.00000000e+00    
           5.18016517e-01     5.17832637e-01     0.00000000e+00    
           5.16296625e-01     5.18545032e-01     0.00000000e+00    
           5.14451027e-01     5.18787980e-01     0.00000000e+00    
           5.12605369e-01     5.18545032e-01     0.00000000e+00    
           5.10885477e-01     5.17832637e-01     0.00000000e+00    
           5.09408593e-01     5.16699374e-01     0.00000000e+00    
           5.08275390e-01     5.15222490e-01     0.00000000e+00    
           5.07562995e-01     5.13502657e-01     0.00000000e+00    
           5.07562995e-01     5.09811342e-01     0.00000000e+00    
           5.08275390e-01     5.08091509e-01     0.00000000e+00    
           5.09408593e-01     5.06614625e-01     0.00000000e+00    
           5.10885477e-01     5.05481362e-01     0.00000000e+00    
           5.12605369e-01     5.04768968e-01     0.00000000e+00    
           5.14451027e-01     5.04526019e-01     0.00000000e+00    
           5.16296625e-01     5.04768968e-01     0.00000000e+00    
           5.18016517e-01     5.05481362e-01     0.00000000e+00    
           5.19493401e-01     5.06614625e-01     0.00000000e+00    
           5.20626605e-01     5.08091509e-01     0.00000000e+00    
           5.21338999e-01     5.09811342e-01     0.00000000e+00    
           4.66931671e-01     5.04409373e-01     0.00000000e+00    
           4.68693614e-01     5.04328012e-01     0.00000000e+00    
           4.70421344e-01     5.04682958e-01     0.00000000e+00    
           4.72008497e-01     5.05452335e-01     0.00000000e+00    
           4.73357379e-01     5.06588817e-01     0.00000000e+00    
           4.74384934e-01     5.08022368e-01     0.00000000e+00    
           4.75027919e-01     5.09664834e-01     0.00000000e+00    
           4.75028187e-01     5.13165236e-01     0.00000000e+00    
           4.74385172e-01     5.14807761e-01     0.00000000e+00    
           4.73357558e-01     5.16241372e-01     0.00000000e+00    
           4.72008646e-01     5.17377913e-01     0.00000000e+00    
           4.70421433e-01     5.18147290e-01     0.00000000e+00    
           4.68693614e-01     5.18502235e-01     0.00000000e+00    
           4.66931641e-01     5.18420875e-01     0.00000000e+00    
           5.32303810e-01     5.16964078e-01     0.00000000e+00    
           5.31043947e-01     5.15658796e-01     0.00000000e+00    
           5.30155540e-01     5.14077127e-01     0.00000000e+00    
           5.29696345e-01     5.12322068e-01     0.00000000e+00    
           5.29696345e-01     5.10507941e-01     0.00000000e+00    
           5.30155540e-01     5.08752882e-01     0.00000000e+00    
           5.31043947e-01     5.07171214e-01     0.00000000e+00    
           5.32303810e-01     5.05865932e-01     0.00000000e+00    
           4.68517244e-01     5.32760799e-01     0.00000000e+00    
           4.68509018e-01     5.30844629e-01     0.00000000e+00    
           4.68960851e-01     5.28982460e-01     0.00000000e+00    
           4.69846308e-01     5.27283132e-01     0.00000000e+00    
           4.71113682e-01     5.25845945e-01     0.00000000e+00    
           4.72688884e-01     5.24754822e-01     0.00000000e+00    
           4.74479854e-01     5.24073541e-01     0.00000000e+00    
           4.78284091e-01     5.24073601e-01     0.00000000e+00    
           4.80075032e-01     5.24754822e-01     0.00000000e+00    
           4.81650203e-01     5.25845885e-01     0.00000000e+00    
           4.82917547e-01     5.27283013e-01     0.00000000e+00    
           4.83803004e-01     5.28982282e-01     0.00000000e+00    
           4.84254897e-01     5.30844331e-01     0.00000000e+00    
           4.84246761e-01     5.32760441e-01     0.00000000e+00    
           4.82887864e-01     4.67691004e-01     0.00000000e+00    
           4.81620818e-01     4.69110936e-01     0.00000000e+00    
           4.80051905e-01     4.70188022e-01     0.00000000e+00    
           4.78271484e-01     4.70860153e-01     0.00000000e+00    
           4.76382166e-01     4.71088618e-01     0.00000000e+00    
           4.74492878e-01     4.70860243e-01     0.00000000e+00    
           4.72712427e-01     4.70188200e-01     0.00000000e+00    
           4.71143454e-01     4.69111174e-01     0.00000000e+00    
           4.69876349e-01     4.67691302e-01     0.00000000e+00    
           4.88103986e-01     5.33086061e-01     0.00000000e+00    
           4.87431526e-01     5.31323195e-01     0.00000000e+00    
           4.87231195e-01     5.29447019e-01     0.00000000e+00    
           4.87516224e-01     5.27581930e-01     0.00000000e+00    
           4.88267750e-01     5.25851250e-01     0.00000000e+00    
           4.89436030e-01     5.24369657e-01     0.00000000e+00    
           4.90943670e-01     5.23235261e-01     0.00000000e+00    
           4.92690891e-01     5.22523046e-01     0.00000000e+00    
           4.96432930e-01     5.22523701e-01     0.00000000e+00    
           4.98180002e-01     5.23235798e-01     0.00000000e+00    
           4.99687493e-01     5.24370134e-01     0.00000000e+00    
           5.00855684e-01     5.25851607e-01     0.00000000e+00    
           5.01607120e-01     5.27582109e-01     0.00000000e+00    
           5.01892149e-01     5.29447079e-01     0.00000000e+00    
           5.01691818e-01     5.31323016e-01     0.00000000e+00    
           5.01019418e-01     5.33085763e-01     0.00000000e+00    
           4.98371124e-01     4.67269689e-01     0.00000000e+00    
           4.96539861e-01     4.68064904e-01     0.00000000e+00    
           4.94562000e-01     4.68336672e-01     0.00000000e+00    
           4.92584139e-01     4.68064904e-01     0.00000000e+00    
           4.90752876e-01     4.67269689e-01     0.00000000e+00    
           5.32269001e-01     4.75995690e-01     0.00000000e+00    
           5.31541944e-01     4.77750987e-01     0.00000000e+00    
           5.30385315e-01     4.79258329e-01     0.00000000e+00    
           5.28877974e-01     4.80414927e-01     0.00000000e+00    
[...]
      <PointData>
        <DataArray type="Float32" Name="Displacement" NumberOfComponents="3">
           1.59885199e-03     1.51278591e-03     0.00000000e+00    
           1.59225299e-03     1.79810228e-03     0.00000000e+00    
           1.74589350e-03     1.58244045e-03     0.00000000e+00    
           1.50309596e-03     1.56296859e-03     0.00000000e+00    
           1.62836572e-03     1.40031462e-03     0.00000000e+00    
           1.50309596e-03     1.56296859e-03     0.00000000e+00    
           1.74589350e-03     1.58244045e-03     0.00000000e+00    
           2.12597218e-03     1.97937945e-03     0.00000000e+00    
           2.12221639e-03     2.16306886e-03     0.00000000e+00    
           1.98061927e-03     2.05392390e-03     0.00000000e+00    
           2.22163908e-05     6.30687791e-05     0.00000000e+00    
           2.59721601e-05    -1.20620607e-04     0.00000000e+00    
           2.09140521e-03     2.05155183e-03     0.00000000e+00    
           2.08705291e-03     2.14567943e-03     0.00000000e+00    
           1.96822709e-03     2.07917439e-03     0.00000000e+00    
          -1.29471755e-05     4.56794551e-05     0.00000000e+00    
          -8.59476040e-06    -4.84482589e-05     0.00000000e+00    
           6.58735516e-04     4.14383772e-04     0.00000000e+00    
           6.49391615e-04     6.92642294e-04     0.00000000e+00    
           1.90454291e-03     1.75119797e-03     0.00000000e+00    
           2.05495628e-03     1.76923268e-03     0.00000000e+00    
           1.97987235e-03     1.96482986e-03     0.00000000e+00    
           2.05495628e-03     1.76923268e-03     0.00000000e+00    
           1.90454291e-03     1.75119797e-03     0.00000000e+00    
           1.76307687e-03     1.62961660e-03     0.00000000e+00    
           1.75504689e-03     1.86492992e-03     0.00000000e+00    
           2.01568031e-03     1.94020919e-03     0.00000000e+00    
           2.01747217e-03     2.06962717e-03     0.00000000e+00    
           9.12716612e-04     8.36942694e-04     0.00000000e+00    
           9.02896398e-04     9.25074855e-04     0.00000000e+00    
           8.08531069e-04     7.49307277e-04     0.00000000e+00    
           7.55905523e-04     7.35914451e-04     0.00000000e+00    
           7.89824117e-04     6.79128570e-04     0.00000000e+00    
           7.55905523e-04     7.35914451e-04     0.00000000e+00    
           8.08531069e-04     7.49307277e-04     0.00000000e+00    
           1.26305735e-03     1.11848011e-03     0.00000000e+00    
           1.25847536e-03     1.24234403e-03     0.00000000e+00    
           8.21395195e-04     6.69079483e-04     0.00000000e+00    
           8.11579870e-04     7.41569442e-04     0.00000000e+00    
           1.28194434e-03     1.10670587e-03     0.00000000e+00    
           1.27920182e-03     1.24978751e-03     0.00000000e+00    
           1.37981505e-03     1.25912635e-03     0.00000000e+00    
           1.37451419e-03     1.55255431e-03     0.00000000e+00    
           1.30058476e-03     1.24529633e-03     0.00000000e+00    
           1.29818893e-03     1.32672954e-03     0.00000000e+00    
           1.05669862e-03     7.60078954e-04     0.00000000e+00    
           1.04772684e-03     1.02482457e-03     0.00000000e+00    
           2.09999993e-03     2.09999993e-03     0.00000000e+00    
           0.00000000e+00     0.00000000e+00     0.00000000e+00    
           0.00000000e+00     0.00000000e+00     0.00000000e+00    
           2.09999993e-03     2.09999993e-03     0.00000000e+00    
           1.63736206e-03     1.52133428e-03     0.00000000e+00    
           1.67372043e-03     1.53791776e-03     0.00000000e+00    
           1.70475733e-03     1.56302995e-03     0.00000000e+00    
           1.72777066e-03     1.59472798e-03     0.00000000e+00    
           1.74160046e-03     1.63067307e-03     0.00000000e+00    
           1.74545427e-03     1.66837056e-03     0.00000000e+00    
           1.73958589e-03     1.70523231e-03     0.00000000e+00    
           1.72432163e-03     1.73872965e-03     0.00000000e+00    
           1.69973669e-03     1.76650810e-03     0.00000000e+00    
           1.66730571e-03     1.78591069e-03     0.00000000e+00    
           1.63077575e-03     1.79644185e-03     0.00000000e+00    
           1.55369320e-03     1.79074518e-03     0.00000000e+00    
           1.51754951e-03     1.77461514e-03     0.00000000e+00    
           1.48669782e-03     1.75010180e-03     0.00000000e+00    
           1.46323536e-03     1.71916175e-03     0.00000000e+00    
           1.44863606e-03     1.68387976e-03     0.00000000e+00    
           1.44369493e-03     1.64690206e-03     0.00000000e+00    
           1.44859834e-03     1.61057001e-03     0.00000000e+00    
           1.46337785e-03     1.57657231e-03     0.00000000e+00    
           1.48797582e-03     1.54691690e-03     0.00000000e+00    
           1.51950121e-03     1.52545189e-03     0.00000000e+00    
           1.55796658e-03     1.51416857e-03     0.00000000e+00    
           1.49496750e-03     1.53254415e-03     0.00000000e+00    
           1.49466062e-03     1.50136393e-03     0.00000000e+00    
           1.50191970e-03     1.47150911e-03     0.00000000e+00    
           1.51664019e-03     1.44488795e-03     0.00000000e+00    
           1.53867307e-03     1.42348837e-03     0.00000000e+00    
           1.56623125e-03     1.40858791e-03     0.00000000e+00    
           1.59665046e-03     1.40155002e-03     0.00000000e+00    
           1.66006316e-03     1.40611897e-03     0.00000000e+00    
           1.68988120e-03     1.41879753e-03     0.00000000e+00    
           1.71596091e-03     1.43804972e-03     0.00000000e+00    
           1.73649332e-03     1.46262278e-03     0.00000000e+00    
           1.75029901e-03     1.49126514e-03     0.00000000e+00    
           1.75669871e-03     1.52206165e-03     0.00000000e+00    
           1.75499637e-03     1.55326875e-03     0.00000000e+00    
           1.72796624e-03     1.60917942e-03     0.00000000e+00    
           1.70159619e-03     1.62996410e-03     0.00000000e+00    
           1.67016173e-03     1.64265162e-03     0.00000000e+00    
           1.63690373e-03     1.64719950e-03     0.00000000e+00    
           1.60400220e-03     1.64355827e-03     0.00000000e+00    
           1.57155609e-03     1.63317611e-03     0.00000000e+00    
           1.54258730e-03     1.61577330e-03     0.00000000e+00    
           1.51929259e-03     1.59172760e-03     0.00000000e+00    
           2.09664972e-03     2.16464791e-03     0.00000000e+00    
           2.07169424e-03     2.16134731e-03     0.00000000e+00    
           2.04731710e-03     2.15334538e-03     0.00000000e+00    
           2.02497956e-03     2.14034622e-03     0.00000000e+00    
           2.00613216e-03     2.12287763e-03     0.00000000e+00    
           1.99190620e-03     2.10208585e-03     0.00000000e+00    
           1.98304304e-03     2.07864027e-03     0.00000000e+00    
           1.98442535e-03     2.02972838e-03     0.00000000e+00    
           1.99455209e-03     2.00789492e-03     0.00000000e+00    
           2.00988771e-03     1.98948733e-03     0.00000000e+00    
           2.02993024e-03     1.97572517e-03     0.00000000e+00    
           2.05247849e-03     1.96900079e-03     0.00000000e+00    
           2.07555038e-03     1.96880847e-03     0.00000000e+00    
           2.10038386e-03     1.97165110e-03     0.00000000e+00    
           4.95940694e-05    -1.07989654e-04     0.00000000e+00    
           6.91529858e-05    -9.05467386e-05     0.00000000e+00    
           8.36929685e-05    -6.95511044e-05     0.00000000e+00    
           9.23984044e-05    -4.61623094e-05     0.00000000e+00    
           9.47885273e-05    -2.20345737e-05     0.00000000e+00    
           9.12059404e-05     1.34213235e-06     0.00000000e+00    
           8.17094915e-05     2.30372370e-05     0.00000000e+00    
           6.70125519e-05     4.14972856e-05     0.00000000e+00    
           4.63063880e-05     5.50852747e-05     0.00000000e+00    
           2.07143975e-03     2.15196749e-03     0.00000000e+00    
           2.05520820e-03     2.15299870e-03     0.00000000e+00    
           2.03834428e-03     2.15067319e-03     0.00000000e+00    
           2.02011154e-03     2.14558677e-03     0.00000000e+00    
           2.00199429e-03     2.13796506e-03     0.00000000e+00    
           1.98715087e-03     2.12623877e-03     0.00000000e+00    
           1.97639526e-03     2.11169571e-03     0.00000000e+00    
           1.97004573e-03     2.09567766e-03     0.00000000e+00    
           1.97078497e-03     2.06340477e-03     0.00000000e+00    
           1.97821786e-03     2.04925635e-03     0.00000000e+00    
           1.98993925e-03     2.03839014e-03     0.00000000e+00    
           2.00462760e-03     2.03107879e-03     0.00000000e+00    
           2.02077464e-03     2.02839426e-03     0.00000000e+00    
           2.03870540e-03     2.02882872e-03     0.00000000e+00    
           2.05762940e-03     2.03311210e-03     0.00000000e+00    
           2.07601022e-03     2.04035640e-03     0.00000000e+00    
           3.58735110e-06    -3.34059259e-05     0.00000000e+00    
           1.07265296e-05    -1.62574197e-05     0.00000000e+00    
           1.25340612e-05     1.52977168e-06     0.00000000e+00    
           9.01046315e-06     1.86084926e-05     0.00000000e+00    
           5.26360054e-07     3.38600257e-05     0.00000000e+00    
           6.96404139e-04     4.21350182e-04     0.00000000e+00    
           7.31095788e-04     4.37330571e-04     0.00000000e+00    
           7.60547642e-04     4.61478630e-04     0.00000000e+00    
           7.82914576e-04     4.91685816e-04     0.00000000e+00    
           7.96973181e-04     5.26421703e-04     0.00000000e+00    
           8.01267452e-04     5.63429378e-04     0.00000000e+00    
           7.96382141e-04     5.99940191e-04     0.00000000e+00    
           7.81087205e-04     6.33422926e-04     0.00000000e+00    
           7.56699999e-04     6.61641068e-04     0.00000000e+00    
           7.24409008e-04     6.81966019e-04     0.00000000e+00    
           6.87158026e-04     6.92453410e-04     0.00000000e+00    
           6.11171592e-04     6.85407722e-04     0.00000000e+00    
           5.76022489e-04     6.69163710e-04     0.00000000e+00    
           5.46040945e-04     6.44957472e-04     0.00000000e+00    
           5.23480587e-04     6.14329765e-04     0.00000000e+00    
           5.09735139e-04     5.79344342e-04     0.00000000e+00    
           5.05701173e-04     5.42522001e-04     0.00000000e+00    
           5.11210877e-04     5.06291806e-04     0.00000000e+00    
           5.26269141e-04     4.73340071e-04     0.00000000e+00    
           5.50602970e-04     4.45899204e-04     0.00000000e+00    
           5.83449320e-04     4.26432292e-04     0.00000000e+00    
           6.20674226e-04     4.15960007e-04     0.00000000e+00    
           2.07552430e-03     1.79125485e-03     0.00000000e+00    
           2.09001824e-03     1.81717158e-03     0.00000000e+00    
           2.09784275e-03     1.84511952e-03     0.00000000e+00    
           2.09879666e-03     1.87395513e-03     0.00000000e+00    
           2.09230441e-03     1.90151844e-03     0.00000000e+00    
           2.07863818e-03     1.92609755e-03     0.00000000e+00    
           2.05833372e-03     1.94562203e-03     0.00000000e+00    
           2.03463249e-03     1.95847964e-03     0.00000000e+00    
           2.00867327e-03     1.96457584e-03     0.00000000e+00    
           1.94867107e-03     1.95921608e-03     0.00000000e+00    
           1.91806618e-03     1.94745418e-03     0.00000000e+00    
           1.89221138e-03     1.92899501e-03     0.00000000e+00    
           1.87213626e-03     1.90550229e-03     0.00000000e+00    
           1.85919879e-03     1.87848404e-03     0.00000000e+00    
           1.85337116e-03     1.84994587e-03     0.00000000e+00    
           1.85506023e-03     1.82110677e-03     0.00000000e+00    
           1.86401710e-03     1.79390074e-03     0.00000000e+00    
           1.88079639e-03     1.76997972e-03     0.00000000e+00    
           1.92962319e-03     1.74041977e-03     0.00000000e+00    
           1.95613294e-03     1.73618097e-03     0.00000000e+00    
           1.98250380e-03     1.73726794e-03     0.00000000e+00    
           2.00818549e-03     1.74357113e-03     0.00000000e+00    
           2.03280384e-03     1.75399473e-03     0.00000000e+00    
           1.79265847e-03     1.63608475e-03     0.00000000e+00    
           1.82080164e-03     1.64839416e-03     0.00000000e+00    
           1.84590870e-03     1.66637171e-03     0.00000000e+00    
           1.86552329e-03     1.68947841e-03     0.00000000e+00    
           1.87887484e-03     1.71604438e-03     0.00000000e+00    
           1.88521622e-03     1.74484577e-03     0.00000000e+00    
           1.88409141e-03     1.77381828e-03     0.00000000e+00    
           1.87606958e-03     1.80140464e-03     0.00000000e+00    
           1.86124886e-03     1.82575278e-03     0.00000000e+00    
           1.84036046e-03     1.84580346e-03     0.00000000e+00    
           1.81356457e-03     1.85931032e-03     0.00000000e+00    
           1.78477552e-03     1.86473387e-03     0.00000000e+00    
           1.72575156e-03     1.85844931e-03     0.00000000e+00    
           1.69822341e-03     1.84616342e-03     0.00000000e+00    
           1.67393440e-03     1.82807993e-03     0.00000000e+00    
           1.65468722e-03     1.80509221e-03     0.00000000e+00    
           1.64141576e-03     1.77859527e-03     0.00000000e+00    
           1.63476798e-03     1.74994755e-03     0.00000000e+00    
           1.63550139e-03     1.72115036e-03     0.00000000e+00    
           1.64290122e-03     1.69372605e-03     0.00000000e+00    
           1.65712973e-03     1.66939222e-03     0.00000000e+00    
           1.67767622e-03     1.64947822e-03     0.00000000e+00    
           1.70401740e-03     1.63586531e-03     0.00000000e+00    
           1.73320156e-03     1.62949914e-03     0.00000000e+00    
           2.03711144e-03     1.94523414e-03     0.00000000e+00    
           2.05745432e-03     1.95502094e-03     0.00000000e+00    
           2.07374641e-03     1.96933094e-03     0.00000000e+00    
           2.08469434e-03     1.98684121e-03     0.00000000e+00    
           2.08990113e-03     2.00598361e-03     0.00000000e+00    
           2.08915770e-03     2.02518376e-03     0.00000000e+00    
           2.08285404e-03     2.04292638e-03     0.00000000e+00    
           2.07093032e-03     2.05770577e-03     0.00000000e+00    
           2.05473509e-03     2.06740107e-03     0.00000000e+00    
           2.03694426e-03     2.07047677e-03     0.00000000e+00    
           1.99692184e-03     2.06420687e-03     0.00000000e+00    
           1.97736383e-03     2.05433648e-03     0.00000000e+00    
           1.96139421e-03     2.03994918e-03     0.00000000e+00    
           1.95049343e-03     2.02229572e-03     0.00000000e+00    
           1.94525637e-03     2.00286740e-03     0.00000000e+00    
           1.94623577e-03     1.98366772e-03     0.00000000e+00    
           1.95230648e-03     1.96623988e-03     0.00000000e+00    
           1.96347013e-03     1.95208483e-03     0.00000000e+00    
           1.97831495e-03     1.94312166e-03     0.00000000e+00    
           1.99528970e-03     1.93968578e-03     0.00000000e+00    
           9.26266366e-04     8.40774854e-04     0.00000000e+00    
           9.38383513e-04     8.47488642e-04     0.00000000e+00    
           9.48402740e-04     8.56492668e-04     0.00000000e+00    
           9.55621595e-04     8.67442519e-04     0.00000000e+00    
           9.59549798e-04     8.79370840e-04     0.00000000e+00    
           9.60322039e-04     8.91575706e-04     0.00000000e+00    
           9.57833836e-04     9.03153850e-04     0.00000000e+00    
           9.52205737e-04     9.13442986e-04     0.00000000e+00    
           9.41894250e-04     9.21417668e-04     0.00000000e+00    
           9.29135131e-04     9.25828004e-04     0.00000000e+00    
           9.15567798e-04     9.26740177e-04     0.00000000e+00    
           8.90195894e-04     9.21399507e-04     0.00000000e+00    
           8.78429564e-04     9.14803240e-04     0.00000000e+00    
           8.68513016e-04     9.06175177e-04     0.00000000e+00    
           8.61164241e-04     8.95514211e-04     0.00000000e+00    
           8.56803730e-04     8.83951667e-04     0.00000000e+00    
           8.55465943e-04     8.71770142e-04     0.00000000e+00    
           8.57767940e-04     8.59820633e-04     0.00000000e+00    
           8.63522699e-04     8.49012751e-04     0.00000000e+00    
           8.73197161e-04     8.40640860e-04     0.00000000e+00    
           8.85827525e-04     8.35510378e-04     0.00000000e+00    
           8.99507024e-04     8.34637787e-04     0.00000000e+00    
           7.48916471e-04     7.28146755e-04     0.00000000e+00    
           7.44228601e-04     7.19425734e-04     0.00000000e+00    
           7.42109551e-04     7.10006803e-04     0.00000000e+00    
           7.42483593e-04     7.00501376e-04     0.00000000e+00    
           7.45406898e-04     6.91869820e-04     0.00000000e+00    
           7.51321611e-04     6.84212428e-04     0.00000000e+00    
           7.59895716e-04     6.78736076e-04     0.00000000e+00    
           7.69991253e-04     6.76818192e-04     0.00000000e+00    
           7.79885042e-04     6.77456264e-04     0.00000000e+00    
           7.99896428e-04     6.82435522e-04     0.00000000e+00    
           8.08801677e-04     6.87521708e-04     0.00000000e+00    
           8.16925254e-04     6.94565184e-04     0.00000000e+00    
           8.23302660e-04     7.02670077e-04     0.00000000e+00    
           8.27651238e-04     7.11747794e-04     0.00000000e+00    
           8.29139201e-04     7.21111777e-04     0.00000000e+00    
           8.28084245e-04     7.30066095e-04     0.00000000e+00    
           8.24458431e-04     7.38278381e-04     0.00000000e+00    
           8.18109314e-04     7.44831981e-04     0.00000000e+00    
           7.97686051e-04     7.50284235e-04     0.00000000e+00    
           7.86975725e-04     7.48670078e-04     0.00000000e+00    
           7.75997119e-04     7.46508536e-04     0.00000000e+00    
           7.65221426e-04     7.42528413e-04     0.00000000e+00    
           1.27936807e-03     1.12362136e-03     0.00000000e+00    
           1.29488634e-03     1.13181223e-03     0.00000000e+00    
           1.30855071e-03     1.14299753e-03     0.00000000e+00    
           1.31937466e-03     1.15707470e-03     0.00000000e+00    
           1.32612977e-03     1.17332686e-03     0.00000000e+00    
           1.32827600e-03     1.19041314e-03     0.00000000e+00    
           1.32581044e-03     1.20684342e-03     0.00000000e+00    
           1.31926616e-03     1.22134469e-03     0.00000000e+00    
           1.30936049e-03     1.23269344e-03     0.00000000e+00    
           1.29582104e-03     1.23993016e-03     0.00000000e+00    
           1.27851288e-03     1.24271179e-03     0.00000000e+00    
           1.23866973e-03     1.23759639e-03     0.00000000e+00    
           1.22111256e-03     1.22852647e-03     0.00000000e+00    
           1.20679615e-03     1.21620682e-03     0.00000000e+00    
           1.19634951e-03     1.20135862e-03     0.00000000e+00    
           1.19027437e-03     1.18502462e-03     0.00000000e+00    
           1.18858553e-03     1.16814405e-03     0.00000000e+00    
           1.19142700e-03     1.15194102e-03     0.00000000e+00    
           1.19908422e-03     1.13723765e-03     0.00000000e+00    
           1.21172564e-03     1.12566794e-03     0.00000000e+00    