<?xml version="1.0"?>
<VTKFile type="UnstructuredGrid" version="0.1">
  <UnstructuredGrid>
    <Piece NumberOfPoints="1034" NumberOfCells="1614">
      <Points>
        <DataArray type="Float32" NumberOfComponents="3">
           5.21582007e-01     5.11657000e-01     0.00000000e+00    
           5.07319987e-01     5.11657000e-01     0.00000000e+00    
           4.65243995e-01     5.17907977e-01     0.00000000e+00    
           4.65243995e-01     5.04921973e-01     0.00000000e+00    
           4.75246996e-01     5.11415005e-01     0.00000000e+00    
           5.33852994e-01     5.04921973e-01     0.00000000e+00    
           5.33852994e-01     5.17907977e-01     0.00000000e+00    
           4.83779997e-01     5.34618974e-01     0.00000000e+00    
           4.68984991e-01     5.34618974e-01     0.00000000e+00    
           4.76381987e-01     5.23841977e-01     0.00000000e+00    
           4.68984991e-01     4.66010004e-01     0.00000000e+00    
           4.83779997e-01     4.66010004e-01     0.00000000e+00    
           4.99920011e-01     5.34618974e-01     0.00000000e+00    
           4.89203990e-01     5.34618974e-01     0.00000000e+00    
           4.94562000e-01     5.22280991e-01     0.00000000e+00    
           4.89203990e-01     4.66010004e-01     0.00000000e+00    
           4.99920011e-01     4.66010004e-01     0.00000000e+00    
           5.32517016e-01     4.74112004e-01     0.00000000e+00    
           5.17961025e-01     4.74112004e-01     0.00000000e+00    
           5.33852994e-01     5.19801974e-01     0.00000000e+00    
           5.33852994e-01     5.29603004e-01     0.00000000e+00    
           5.19536972e-01     5.24702013e-01     0.00000000e+00    
           4.65243995e-01     5.29603004e-01     0.00000000e+00    
           4.65243995e-01     5.19801974e-01     0.00000000e+00    
           4.92487997e-01     5.17117977e-01     0.00000000e+00    
           4.76904988e-01     5.17117977e-01     0.00000000e+00    
           5.17996013e-01     5.27033985e-01     0.00000000e+00    
           5.04473984e-01     5.27033985e-01     0.00000000e+00    
           5.08446991e-01     4.83435005e-01     0.00000000e+00    
           4.94414002e-01     4.83435005e-01     0.00000000e+00    
           4.65243995e-01     4.83101994e-01     0.00000000e+00    
           4.65243995e-01     4.74415004e-01     0.00000000e+00    
           4.78336990e-01     4.78758007e-01     0.00000000e+00    
           5.33852994e-01     4.74415004e-01     0.00000000e+00    
           5.33852994e-01     4.83101994e-01     0.00000000e+00    
           4.80668008e-01     4.95810986e-01     0.00000000e+00    
           4.66084987e-01     4.95810986e-01     0.00000000e+00    
           4.93930012e-01     4.79214013e-01     0.00000000e+00    
           4.78967011e-01     4.79214013e-01     0.00000000e+00    
           5.09284973e-01     4.97658014e-01     0.00000000e+00    
           4.95503992e-01     4.97658014e-01     0.00000000e+00    
           5.33011973e-01     5.01751006e-01     0.00000000e+00    
           5.17829001e-01     5.01751006e-01     0.00000000e+00    
           4.95451003e-01     5.00564992e-01     0.00000000e+00    
           4.80922014e-01     5.00564992e-01     0.00000000e+00    
           5.25367022e-01     4.88312006e-01     0.00000000e+00    
           5.09521008e-01     4.88312006e-01     0.00000000e+00    
           4.65243995e-01     5.34618974e-01     0.00000000e+00    
           4.65243995e-01     4.66010004e-01     0.00000000e+00    
           5.33852994e-01     4.66010004e-01     0.00000000e+00    
           5.33852994e-01     5.34618974e-01     0.00000000e+00    
           5.21338999e-01     5.13502657e-01     0.00000000e+00    
           5.20626605e-01     5.15222490e-01     0.00000000e+00    
           5.19493401e-01     5.16699374e-01     0.00000000e+00    
           5.18016517e-01     5.17832637e-01     0.00000000e+00    
           5.16296625e-01     5.18545032e-01     0.00000000e+00    
           5.14451027e-01     5.18787980e-01     0.00000000e+00    
           5.12605369e-01     5.18545032e-01     0.00000000e+00    
           5.10885477e-01     5.17832637e-01     0.00000000e+00    
           5.09408593e-01     5.16699374e-01     0.00000000e+00    
           5.08275390e-01     5.15222490e-01     0.00000000e+00    
           5.07562995e-01     5.13502657e-01     0.00000000e+00    
           5.07562995e-01     5.09811342e-01     0.00000000e+00    
           5.08275390e-01     5.08091509e-01     0.00000000e+00    
           5.09408593e-01     5.06614625e-01     0.00000000e+00    
           5.10885477e-01     5.05481362e-01     0.00000000e+00    
           5.12605369e-01     5.04768968e-01     0.00000000e+00    
           5.14451027e-01     5.04526019e-01     0.00000000e+00    
           5.16296625e-01     5.04768968e-01     0.00000000e+00    
           5.18016517e-01     5.05481362e-01     0.00000000e+00    
           5.19493401e-01     5.06614625e-01     0.00000000e+00    
           5.20626605e-01     5.08091509e-01     0.00000000e+00    
           5.21338999e-01     5.09811342e-01     0.00000000e+00    
           4.66931671e-01     5.04409373e-01     0.00000000e+00    
           4.68693614e-01     5.04328012e-01     0.00000000e+00    
           4.70421344e-01     5.04682958e-01     0.00000000e+00    
           4.72008497e-01     5.05452335e-01     0.00000000e+00    
           4.73357379e-01     5.06588817e-01     0.00000000e+00    
           4.74384934e-01     5.08022368e-01     0.00000000e+00    
           4.75027919e-01     5.09664834e-01     0.00000000e+00    
           4.75028187e-01     5.13165236e-01     0.00000000e+00    
           4.74385172e-01     5.14807761e-01     0.00000000e+00    
           4.73357558e-01     5.16241372e-01     0.00000000e+00    
           4.72008646e-01     5.17377913e-01     0.00000000e+00    
           4.70421433e-01     5.18147290e-01     0.00000000e+00    
           4.68693614e-01     5.18502235e-01     0.00000000e+00    
           4.66931641e-01     5.18420875e-01     0.00000000e+00    
           5.32303810e-01     5.16964078e-01     0.00000000e+00    
           5.31043947e-01     5.15658796e-01     0.00000000e+00    
           5.30155540e-01     5.14077127e-01     0.00000000e+00    
           5.29696345e-01     5.12322068e-01     0.00000000e+00    
           5.29696345e-01     5.10507941e-01     0.00000000e+00    
           5.30155540e-01     5.08752882e-01     0.00000000e+00    
           5.31043947e-01     5.07171214e-01     0.00000000e+00    
           5.32303810e-01     5.05865932e-01     0.00000000e+00    
           4.68517244e-01     5.32760799e-01     0.00000000e+00    
           4.68509018e-01     5.30844629e-01     0.00000000e+00    
           4.68960851e-01     5.28982460e-01     0.00000000e+00    
           4.69846308e-01     5.27283132e-01     0.00000000e+00    
           4.71113682e-01     5.25845945e-01     0.00000000e+00    
           4.72688884e-01     5.24754822e-01     0.00000000e+00    
           4.74479854e-01     5.24073541e-01     0.00000000e+00    
           4.78284091e-01     5.24073601e-01     0.00000000e+00    
           4.80075032e-01     5.24754822e-01     0.00000000e+00    
           4.81650203e-01     5.25845885e-01     0.00000000e+00    
           4.82917547e-01     5.27283013e-01     0.00000000e+00    
           4.83803004e-01     5.28982282e-01     0.00000000e+00    
           4.84254897e-01     5.30844331e-01     0.00000000e+00    
           4.84246761e-01     5.32760441e-01     0.00000000e+00    
           4.82887864e-01     4.67691004e-01     0.00000000e+00    
           4.81620818e-01     4.69110936e-01     0.00000000e+00    
           4.80051905e-01     4.70188022e-01     0.00000000e+00    
           4.78271484e-01     4.70860153e-01     0.00000000e+00    
           4.76382166e-01     4.71088618e-01     0.00000000e+00    
           4.74492878e-01     4.70860243e-01     0.00000000e+00    
           4.72712427e-01     4.70188200e-01     0.00000000e+00    
           4.71143454e-01     4.69111174e-01     0.00000000e+00    
           4.69876349e-01     4.67691302e-01     0.00000000e+00    
           4.88103986e-01     5.33086061e-01     0.00000000e+00    
           4.87431526e-01     5.31323195e-01     0.00000000e+00    
           4.87231195e-01     5.29447019e-01     0.00000000e+00    
           4.87516224e-01     5.27581930e-01     0.00000000e+00    
           4.88267750e-01     5.25851250e-01     0.00000000e+00    
           4.89436030e-01     5.24369657e-01     0.00000000e+00    
           4.90943670e-01     5.23235261e-01     0.00000000e+00    
           4.92690891e-01     5.22523046e-01     0.00000000e+00    
           4.96432930e-01     5.22523701e-01     0.00000000e+00    
           4.98180002e-01     5.23235798e-01     0.00000000e+00    
           4.99687493e-01     5.24370134e-01     0.00000000e+00    
           5.00855684e-01     5.25851607e-01     0.00000000e+00    
           5.01607120e-01     5.27582109e-01     0.00000000e+00    
           5.01892149e-01     5.29447079e-01     0.00000000e+00    
           5.01691818e-01     5.31323016e-01     0.00000000e+00    
           5.01019418e-01     5.33085763e-01     0.00000000e+00    
           4.98371124e-01     4.67269689e-01     0.00000000e+00    
           4.96539861e-01     4.68064904e-01     0.00000000e+00    
           4.94562000e-01     4.68336672e-01     0.00000000e+00    
           4.92584139e-01     4.68064904e-01     0.00000000e+00    
           4.90752876e-01     4.67269689e-01     0.00000000e+00    
           5.32269001e-01     4.75995690e-01     0.00000000e+00    
           5.31541944e-01     4.77750987e-01     0.00000000e+00    
           5.30385315e-01     4.79258329e-01     0.00000000e+00    
           5.28877974e-01     4.80414927e-01     0.00000000e+00    
[...]
      <PointData>
        <DataArray type="Float32" Name="Displacement" NumberOfComponents="3">
           2.79136264e-04     2.54462502e-04     0.00000000e+00    
           2.77867861e-04     3.12822405e-04     0.00000000e+00    
           2.95823353e-04     2.75987928e-04     0.00000000e+00    
           2.48099706e-04     2.62023474e-04     0.00000000e+00    
           2.73297890e-04     2.44018243e-04     0.00000000e+00    
           2.48099706e-04     2.62023474e-04     0.00000000e+00    
           2.95823353e-04     2.75987928e-04     0.00000000e+00    
           4.06306179e-04     3.66615568e-04     0.00000000e+00    
           4.06120031e-04     4.27414372e-04     0.00000000e+00    
           3.55134922e-04     3.87958280e-04     0.00000000e+00    
           6.12004123e-06     2.74143658e-05     0.00000000e+00    
           6.30616705e-06    -3.33844255e-05     0.00000000e+00    
           3.83645383e-04     3.51661292e-04     0.00000000e+00    
           3.84111918e-04     3.73231218e-04     0.00000000e+00    
           3.49982380e-04     3.51625786e-04     0.00000000e+00    
          -1.58880885e-05    -2.67687865e-05     0.00000000e+00    
          -1.63546174e-05    -4.83387084e-05     0.00000000e+00    
           7.90861886e-05     4.73684850e-05     0.00000000e+00    
           7.66643934e-05     1.04228748e-04     0.00000000e+00    
           3.38515267e-04     3.22892651e-04     0.00000000e+00    
           3.75672273e-04     3.34672135e-04     0.00000000e+00    
           3.58767807e-04     3.72512761e-04     0.00000000e+00    
           3.75672273e-04     3.34672135e-04     0.00000000e+00    
           3.38515267e-04     3.22892651e-04     0.00000000e+00    
           3.09131778e-04     2.87024945e-04     0.00000000e+00    
           3.06166185e-04     3.38638056e-04     0.00000000e+00    
           3.68558423e-04     3.50743503e-04     0.00000000e+00    
           3.70050053e-04     3.71781643e-04     0.00000000e+00    
           1.35012640e-04     1.36564209e-04     0.00000000e+00    
           1.29878332e-04     1.39905635e-04     0.00000000e+00    
           1.13168957e-04     9.25735512e-05     0.00000000e+00    
           8.74684483e-05     8.52692829e-05     0.00000000e+00    
           1.01917394e-04     6.06517679e-05     0.00000000e+00    
           8.74684483e-05     8.52692829e-05     0.00000000e+00    
           1.13168957e-04     9.25735512e-05     0.00000000e+00    
           1.99957154e-04     1.73199907e-04     0.00000000e+00    
           2.00739072e-04     1.95414730e-04     0.00000000e+00    
           1.12493864e-04     7.66819212e-05     0.00000000e+00    
           1.07665248e-04     7.88762554e-05     0.00000000e+00    
           1.99010567e-04     1.70814747e-04     0.00000000e+00    
           1.99297312e-04     2.00422903e-04     0.00000000e+00    
           2.29640558e-04     2.07904959e-04     0.00000000e+00    
           2.27813827e-04     2.48359371e-04     0.00000000e+00    
           2.05196178e-04     2.00537906e-04     0.00000000e+00    
           2.05605829e-04     2.24847594e-04     0.00000000e+00    
           1.70484549e-04     1.42440811e-04     0.00000000e+00    
           1.68144878e-04     1.84415912e-04     0.00000000e+00    
           3.99999990e-04     3.99999990e-04     0.00000000e+00    
           0.00000000e+00     0.00000000e+00     0.00000000e+00    
           0.00000000e+00     0.00000000e+00     0.00000000e+00    
           3.99999990e-04     3.99999990e-04     0.00000000e+00    
           2.88464740e-04     2.57862936e-04     0.00000000e+00    
           2.97227089e-04     2.62706890e-04     0.00000000e+00    
           3.04443238e-04     2.68808275e-04     0.00000000e+00    
           3.09561030e-04     2.75664032e-04     0.00000000e+00    
           3.12398566e-04     2.83603411e-04     0.00000000e+00    
           3.13089375e-04     2.91927456e-04     0.00000000e+00    
           3.11763608e-04     2.99523061e-04     0.00000000e+00    
           3.08227609e-04     3.05560185e-04     0.00000000e+00    
           3.02428845e-04     3.10012430e-04     0.00000000e+00    
           2.95066915e-04     3.12593853e-04     0.00000000e+00    
           2.86750874e-04     3.13630735e-04     0.00000000e+00    
           2.68945354e-04     3.09991301e-04     0.00000000e+00    
           2.60561588e-04     3.05726426e-04     0.00000000e+00    
           2.53405189e-04     3.00111686e-04     0.00000000e+00    
           2.47991877e-04     2.93754652e-04     0.00000000e+00    
           2.44810974e-04     2.86739494e-04     0.00000000e+00    
           2.43848568e-04     2.79467524e-04     0.00000000e+00    
           2.44829047e-04     2.72119825e-04     0.00000000e+00    
           2.47755175e-04     2.64718838e-04     0.00000000e+00    
           2.52881757e-04     2.58007814e-04     0.00000000e+00    
           2.59893684e-04     2.54368410e-04     0.00000000e+00    
           2.69137643e-04     2.53323262e-04     0.00000000e+00    
           2.47681397e-04     2.58017477e-04     0.00000000e+00    
           2.48041644e-04     2.53342296e-04     0.00000000e+00    
           2.49410805e-04     2.48719472e-04     0.00000000e+00    
           2.52240541e-04     2.45254021e-04     0.00000000e+00    
           2.56382540e-04     2.43284449e-04     0.00000000e+00    
           2.61558424e-04     2.42378010e-04     0.00000000e+00    
           2.67260766e-04     2.42846043e-04     0.00000000e+00    
           2.79064552e-04     2.45980191e-04     0.00000000e+00    
           2.84295413e-04     2.48455675e-04     0.00000000e+00    
           2.88890908e-04     2.51770281e-04     0.00000000e+00    
           2.92641984e-04     2.55779538e-04     0.00000000e+00    
           2.95476260e-04     2.60390312e-04     0.00000000e+00    
           2.97135819e-04     2.65236886e-04     0.00000000e+00    
           2.97117687e-04     2.70576566e-04     0.00000000e+00    
           2.92315905e-04     2.80591688e-04     0.00000000e+00    
           2.86818744e-04     2.83180038e-04     0.00000000e+00    
           2.80178036e-04     2.83412432e-04     0.00000000e+00    
           2.73113284e-04     2.82162742e-04     0.00000000e+00    
           2.66221585e-04     2.79045402e-04     0.00000000e+00    
           2.59353284e-04     2.74933147e-04     0.00000000e+00    
           2.53470818e-04     2.70577031e-04     0.00000000e+00    
           2.49853183e-04     2.65853043e-04     0.00000000e+00    
           3.96642601e-04     4.26886458e-04     0.00000000e+00    
           3.87468259e-04     4.24816302e-04     0.00000000e+00    
           3.78931640e-04     4.21427278e-04     0.00000000e+00    
           3.71329108e-04     4.16733441e-04     0.00000000e+00    
           3.64891632e-04     4.10731329e-04     0.00000000e+00    
           3.59760510e-04     4.03743703e-04     0.00000000e+00    
           3.56309058e-04     3.96059419e-04     0.00000000e+00    
           3.56294535e-04     3.79566540e-04     0.00000000e+00    
           3.59532220e-04     3.72020120e-04     0.00000000e+00    
           3.64491396e-04     3.66270979e-04     0.00000000e+00    
           3.71116621e-04     3.62452993e-04     0.00000000e+00    
           3.78625613e-04     3.60757782e-04     0.00000000e+00    
           3.87013919e-04     3.60968435e-04     0.00000000e+00    
           3.96447896e-04     3.62757128e-04     0.00000000e+00    
           1.56914957e-05    -2.78691950e-05     0.00000000e+00    
           2.35699317e-05    -2.09434729e-05     0.00000000e+00    
           2.92793120e-05    -1.33114736e-05     0.00000000e+00    
           3.24923240e-05    -5.39408575e-06     0.00000000e+00    
           3.31413066e-05     3.27646512e-06     0.00000000e+00    
           3.18333769e-05     1.14846925e-05     0.00000000e+00    
           2.82299588e-05     1.82714157e-05     0.00000000e+00    
           2.23989155e-05     2.30935220e-05     0.00000000e+00    
           1.47079982e-05     2.60801171e-05     0.00000000e+00    
           3.80078796e-04     3.73850518e-04     0.00000000e+00    
           3.75475094e-04     3.73189629e-04     0.00000000e+00    
           3.70054739e-04     3.71519855e-04     0.00000000e+00    
           3.63879109e-04     3.68514215e-04     0.00000000e+00    
           3.57767218e-04     3.64406180e-04     0.00000000e+00    
           3.52892588e-04     3.59982514e-04     0.00000000e+00    
           3.50216083e-04     3.56122589e-04     0.00000000e+00    
           3.49393027e-04     3.53618874e-04     0.00000000e+00    
           3.51270370e-04     3.49384209e-04     0.00000000e+00    
           3.53435957e-04     3.47283669e-04     0.00000000e+00    
           3.56494624e-04     3.45734181e-04     0.00000000e+00    
           3.60133447e-04     3.44742642e-04     0.00000000e+00    
           3.64201987e-04     3.44506552e-04     0.00000000e+00    
           3.68878449e-04     3.44925415e-04     0.00000000e+00    
           3.73925170e-04     3.46258283e-04     0.00000000e+00    
           3.79042263e-04     3.48435889e-04     0.00000000e+00    
          -1.26018176e-05    -4.43587523e-05     0.00000000e+00    
          -1.01340538e-05    -4.00962781e-05     0.00000000e+00    
          -9.18582009e-06    -3.59610458e-05     0.00000000e+00    
          -9.99965323e-06    -3.19969840e-05     0.00000000e+00    
          -1.23694736e-05    -2.87946586e-05     0.00000000e+00    
           8.74845864e-05     4.98226509e-05     0.00000000e+00    
           9.44861968e-05     5.32248196e-05     0.00000000e+00    
           1.00388723e-04     5.76169259e-05     0.00000000e+00    
           1.05621053e-04     6.37392732e-05     0.00000000e+00    
           1.09401197e-04     7.14067646e-05     0.00000000e+00    
           1.10912995e-04     7.99775953e-05     0.00000000e+00    
           1.10616507e-04     8.93085235e-05     0.00000000e+00    
           1.07361106e-04     9.69588582e-05     0.00000000e+00    
           1.01783291e-04     1.02355778e-04     0.00000000e+00    
           9.42346232e-05     1.05142084e-04     0.00000000e+00    
           8.55373364e-05     1.05803367e-04     0.00000000e+00    
           6.76850614e-05     1.01162143e-04     0.00000000e+00    
           5.95001329e-05     9.62882477e-05     0.00000000e+00    
           5.25737814e-05     9.00295272e-05     0.00000000e+00    
           4.74845037e-05     8.25315801e-05     0.00000000e+00    
           4.45231308e-05     7.41611730e-05     0.00000000e+00    
           4.37346680e-05     6.56662523e-05     0.00000000e+00    
           4.50662301e-05     5.82275970e-05     0.00000000e+00    
           4.85052296e-05     5.24355164e-05     0.00000000e+00    
           5.41975933e-05     4.85181517e-05     0.00000000e+00    
           6.15717508e-05     4.64041950e-05     0.00000000e+00    
           7.01871322e-05     4.59282201e-05     0.00000000e+00    
           3.80325509e-04     3.40110506e-04     0.00000000e+00    
           3.83670558e-04     3.46614135e-04     0.00000000e+00    
           3.85477499e-04     3.53839394e-04     0.00000000e+00    
           3.85729887e-04     3.60779726e-04     0.00000000e+00    
           3.84317304e-04     3.66464839e-04     0.00000000e+00    
           3.80916783e-04     3.70519643e-04     0.00000000e+00    
           3.76253302e-04     3.72660201e-04     0.00000000e+00    
           3.71098751e-04     3.73586838e-04     0.00000000e+00    
           3.65520566e-04     3.73434770e-04     0.00000000e+00    
           3.50859918e-04     3.70337133e-04     0.00000000e+00    
           3.42744257e-04     3.66858847e-04     0.00000000e+00    
           3.35869176e-04     3.62108141e-04     0.00000000e+00    
           3.30733776e-04     3.56812146e-04     0.00000000e+00    
           3.27562972e-04     3.50951654e-04     0.00000000e+00    
           3.25997797e-04     3.44760134e-04     0.00000000e+00    
           3.26219888e-04     3.38162063e-04     0.00000000e+00    
           3.28040536e-04     3.31312272e-04     0.00000000e+00    
           3.32223339e-04     3.26046138e-04     0.00000000e+00    
           3.45150067e-04     3.22085485e-04     0.00000000e+00    
           3.51975323e-04     3.22777487e-04     0.00000000e+00    
           3.58690508e-04     3.24621826e-04     0.00000000e+00    
           3.64894920e-04     3.27560265e-04     0.00000000e+00    
           3.70599708e-04     3.30831652e-04     0.00000000e+00    
           3.17229918e-04     2.90132419e-04     0.00000000e+00    
           3.25076544e-04     2.95123551e-04     0.00000000e+00    
           3.32308962e-04     3.00726853e-04     0.00000000e+00    
           3.37214529e-04     3.06687260e-04     0.00000000e+00    
           3.39934602e-04     3.12071032e-04     0.00000000e+00    
           3.40518716e-04     3.17080820e-04     0.00000000e+00    
           3.39872029e-04     3.23204265e-04     0.00000000e+00    
           3.37615289e-04     3.29799310e-04     0.00000000e+00    
           3.33624252e-04     3.35180841e-04     0.00000000e+00    
           3.28024646e-04     3.38873622e-04     0.00000000e+00    
           3.20970605e-04     3.40490398e-04     0.00000000e+00    
           3.13688768e-04     3.39966529e-04     0.00000000e+00    
           2.98971747e-04     3.35977733e-04     0.00000000e+00    
           2.92643206e-04     3.32593190e-04     0.00000000e+00    
           2.87042407e-04     3.28479626e-04     0.00000000e+00    
           2.82363384e-04     3.22975597e-04     0.00000000e+00    
           2.78916472e-04     3.16390506e-04     0.00000000e+00    
           2.76974723e-04     3.08908289e-04     0.00000000e+00    
           2.76905455e-04     3.01580818e-04     0.00000000e+00    
           2.78424646e-04     2.95547390e-04     0.00000000e+00    
           2.81961402e-04     2.91060889e-04     0.00000000e+00    
           2.87238800e-04     2.87944364e-04     0.00000000e+00    
           2.93773017e-04     2.86138646e-04     0.00000000e+00    
           3.01237596e-04     2.85771617e-04     0.00000000e+00    
           3.73361429e-04     3.52431845e-04     0.00000000e+00    
           3.78246099e-04     3.54966993e-04     0.00000000e+00    
           3.82041180e-04     3.58143501e-04     0.00000000e+00    
           3.84305749e-04     3.61522980e-04     0.00000000e+00    
           3.85123189e-04     3.64880223e-04     0.00000000e+00    
           3.84562387e-04     3.67977656e-04     0.00000000e+00    
           3.82897008e-04     3.70460650e-04     0.00000000e+00    
           3.80384881e-04     3.72072042e-04     0.00000000e+00    
           3.77208489e-04     3.72777635e-04     0.00000000e+00    
           3.73845018e-04     3.72382405e-04     0.00000000e+00    
           3.65918182e-04     3.70598456e-04     0.00000000e+00    
           3.61737009e-04     3.68558249e-04     0.00000000e+00    
           3.58153309e-04     3.65509099e-04     0.00000000e+00    
           3.55559925e-04     3.61620449e-04     0.00000000e+00    
           3.54150659e-04     3.56943463e-04     0.00000000e+00    
           3.54363874e-04     3.52399104e-04     0.00000000e+00    
           3.55820113e-04     3.49327398e-04     0.00000000e+00    
           3.58378806e-04     3.48072761e-04     0.00000000e+00    
           3.61231359e-04     3.48477712e-04     0.00000000e+00    
           3.64349136e-04     3.49549722e-04     0.00000000e+00    
           1.37733339e-04     1.37937212e-04     0.00000000e+00    
           1.39529555e-04     1.38932213e-04     0.00000000e+00    
           1.40925666e-04     1.40263248e-04     0.00000000e+00    
           1.42356424e-04     1.42800869e-04     0.00000000e+00    
           1.43165409e-04     1.46089937e-04     0.00000000e+00    
           1.42709949e-04     1.47895087e-04     0.00000000e+00    
           1.41719138e-04     1.47967090e-04     0.00000000e+00    
           1.39824362e-04     1.46978375e-04     0.00000000e+00    
           1.37255949e-04     1.45522426e-04     0.00000000e+00    
           1.34724221e-04     1.43773985e-04     0.00000000e+00    
           1.32162299e-04     1.41923985e-04     0.00000000e+00    
           1.27919062e-04     1.38554940e-04     0.00000000e+00    
           1.26727216e-04     1.37514056e-04     0.00000000e+00    
           1.26168205e-04     1.36837349e-04     0.00000000e+00    
           1.25355771e-04     1.35934126e-04     0.00000000e+00    
           1.24644765e-04     1.34995964e-04     0.00000000e+00    
           1.24228609e-04     1.34199552e-04     0.00000000e+00    
           1.24644168e-04     1.33501206e-04     0.00000000e+00    
           1.25761449e-04     1.33105234e-04     0.00000000e+00    
           1.27611755e-04     1.33325651e-04     0.00000000e+00    
           1.29912296e-04     1.33962109e-04     0.00000000e+00    
           1.32499932e-04     1.35133218e-04     0.00000000e+00    
           8.42386798e-05     8.24516246e-05     0.00000000e+00    
           8.13127190e-05     7.86092060e-05     0.00000000e+00    
           7.95480519e-05     7.38203598e-05     0.00000000e+00    
           7.91931816e-05     6.82739119e-05     0.00000000e+00    
           8.04361698e-05     6.33701566e-05     0.00000000e+00    
           8.36519393e-05     5.97387152e-05     0.00000000e+00    
           8.81437445e-05     5.81246859e-05     0.00000000e+00    
           9.29398520e-05     5.84190057e-05     0.00000000e+00    
           9.75342045e-05     5.93456862e-05     0.00000000e+00    
           1.06143161e-04     6.23245651e-05     0.00000000e+00    
           1.10457840e-04     6.48115747e-05     0.00000000e+00    
           1.14799659e-04     6.87378706e-05     0.00000000e+00    
           1.18381184e-04     7.35261492e-05     0.00000000e+00    
           1.21257872e-04     7.86778473e-05     0.00000000e+00    
           1.22477039e-04     8.32060614e-05     0.00000000e+00    
           1.22258265e-04     8.66890914e-05     0.00000000e+00    
           1.20497622e-04     8.94029727e-05     0.00000000e+00    
           1.17399926e-04     9.14323973e-05     0.00000000e+00    
           1.08135275e-04     9.26100838e-05     0.00000000e+00    
           1.02646205e-04     9.13874755e-05     0.00000000e+00    
           9.70079855e-05     8.96083075e-05     0.00000000e+00    
           9.16907884e-05     8.75046389e-05     0.00000000e+00    
           2.03202813e-04     1.75452966e-04     0.00000000e+00    
           2.06255922e-04     1.77156384e-04     0.00000000e+00    
           2.09189471e-04     1.79049079e-04     0.00000000e+00    
           2.12100087e-04     1.81759548e-04     0.00000000e+00    
           2.14106563e-04     1.85137542e-04     0.00000000e+00    
           2.14916712e-04     1.88881211e-04     0.00000000e+00    
           2.14637053e-04     1.92608524e-04     0.00000000e+00    
           2.13424413e-04     1.95218498e-04     0.00000000e+00    
           2.11507548e-04     1.96424735e-04     0.00000000e+00    
           2.08825819e-04     1.96770998e-04     0.00000000e+00    
           2.05211516e-04     1.96338093e-04     0.00000000e+00    
           1.96019420e-04     1.93525571e-04     0.00000000e+00    
           1.91668718e-04     1.90464110e-04     0.00000000e+00    
           1.87891637e-04     1.86519290e-04     0.00000000e+00    
           1.84926437e-04     1.81918309e-04     0.00000000e+00    
           1.83081458e-04     1.77340000e-04     0.00000000e+00    
           1.82368400e-04     1.73730630e-04     0.00000000e+00    
           1.83031792e-04     1.71365551e-04     0.00000000e+00    
           1.85260476e-04     1.69904655e-04     0.00000000e+00    
           1.88495338e-04     1.69223582e-04     0.00000000e+00    