<?xml version="1.0"?>
<VTKFile type="UnstructuredGrid" version="0.1">
  <UnstructuredGrid>
    <Piece NumberOfPoints="1034" NumberOfCells="1614">
      <Points>
        <DataArray type="Float32" NumberOfComponents="3">
           5.21582007e-01     5.11657000e-01     0.00000000e+00    
           5.07319987e-01     5.11657000e-01     0.00000000e+00    
           4.65243995e-01     5.17907977e-01     0.00000000e+00    
           4.65243995e-01     5.04921973e-01     0.00000000e+00    
           4.75246996e-01     5.11415005e-01     0.00000000e+00    
           5.33852994e-01     5.04921973e-01     0.00000000e+00    
           5.33852994e-01     5.17907977e-01     0.00000000e+00    
           4.83779997e-01     5.34618974e-01     0.00000000e+00    
           4.68984991e-01     5.34618974e-01     0.00000000e+00    
           4.76381987e-01     5.23841977e-01     0.00000000e+00    
           4.68984991e-01     4.66010004e-01     0.00000000e+00    
           4.83779997e-01     4.66010004e-01     0.00000000e+00    
           4.99920011e-01     5.34618974e-01     0.00000000e+00    
           4.89203990e-01     5.34618974e-01     0.00000000e+00    
           4.94562000e-01     5.22280991e-01     0.00000000e+00    
           4.89203990e-01     4.66010004e-01     0.00000000e+00    
           4.99920011e-01     4.66010004e-01     0.00000000e+00    
           5.32517016e-01     4.74112004e-01     0.00000000e+00    
           5.17961025e-01     4.74112004e-01     0.00000000e+00    
           5.33852994e-01     5.19801974e-01     0.00000000e+00    
           5.33852994e-01     5.29603004e-01     0.00000000e+00    
           5.19536972e-01     5.24702013e-01     0.00000000e+00    
           4.65243995e-01     5.29603004e-01     0.00000000e+00    
           4.65243995e-01     5.19801974e-01     0.00000000e+00    
           4.92487997e-01     5.17117977e-01     0.00000000e+00    
           4.76904988e-01     5.17117977e-01     0.00000000e+00    
           5.17996013e-01     5.27033985e-01     0.00000000e+00    
           5.04473984e-01     5.27033985e-01     0.00000000e+00    
           5.08446991e-01     4.83435005e-01     0.00000000e+00    
           4.94414002e-01     4.83435005e-01     0.00000000e+00    
           4.65243995e-01     4.83101994e-01     0.00000000e+00    
           4.65243995e-01     4.74415004e-01     0.00000000e+00    
           4.78336990e-01     4.78758007e-01     0.00000000e+00    
           5.33852994e-01     4.74415004e-01     0.00000000e+00    
           5.33852994e-01     4.83101994e-01     0.00000000e+00    
           4.80668008e-01     4.95810986e-01     0.00000000e+00    
           4.66084987e-01     4.95810986e-01     0.00000000e+00    
           4.93930012e-01     4.79214013e-01     0.00000000e+00    
           4.78967011e-01     4.79214013e-01     0.00000000e+00    
           5.09284973e-01     4.97658014e-01     0.00000000e+00    
           4.95503992e-01     4.97658014e-01     0.00000000e+00    
           5.33011973e-01     5.01751006e-01     0.00000000e+00    
           5.17829001e-01     5.01751006e-01     0.00000000e+00    
           4.95451003e-01     5.00564992e-01     0.00000000e+00    
           4.80922014e-01     5.00564992e-01     0.00000000e+00    
           5.25367022e-01     4.88312006e-01     0.00000000e+00    
           5.09521008e-01     4.88312006e-01     0.00000000e+00    
           4.65243995e-01     5.34618974e-01     0.00000000e+00    
           4.65243995e-01     4.66010004e-01     0.00000000e+00    
           5.33852994e-01     4.66010004e-01     0.00000000e+00    
           5.33852994e-01     5.34618974e-01     0.00000000e+00    
           5.21338999e-01     5.13502657e-01     0.00000000e+00    
           5.20626605e-01     5.15222490e-01     0.00000000e+00    
           5.19493401e-01     5.16699374e-01     0.00000000e+00    
           5.18016517e-01     5.17832637e-01     0.00000000e+00    
           5.16296625e-01     5.18545032e-01     0.00000000e+00    
           5.14451027e-01     5.18787980e-01     0.00000000e+00    
           5.12605369e-01     5.18545032e-01     0.00000000e+00    
           5.10885477e-01     5.17832637e-01     0.00000000e+00    
           5.09408593e-01     5.16699374e-01     0.00000000e+00    
           5.08275390e-01     5.15222490e-01     0.00000000e+00    
           5.07562995e-01     5.13502657e-01     0.00000000e+00    
           5.07562995e-01     5.09811342e-01     0.00000000e+00    
           5.08275390e-01     5.08091509e-01     0.00000000e+00    
           5.09408593e-01     5.06614625e-01     0.00000000e+00    
           5.10885477e-01     5.05481362e-01     0.00000000e+00    
           5.12605369e-01     5.04768968e-01     0.00000000e+00    
           5.14451027e-01     5.04526019e-01     0.00000000e+00    
           5.16296625e-01     5.04768968e-01     0.00000000e+00    
           5.18016517e-01     5.05481362e-01     0.00000000e+00    
           5.19493401e-01     5.06614625e-01     0.00000000e+00    
           5.20626605e-01     5.08091509e-01     0.00000000e+00    
           5.21338999e-01     5.09811342e-01     0.00000000e+00    
           4.66931671e-01     5.04409373e-01     0.00000000e+00    
           4.68693614e-01     5.04328012e-01     0.00000000e+00    
           4.70421344e-01     5.04682958e-01     0.00000000e+00    
           4.72008497e-01     5.05452335e-01     0.00000000e+00    
           4.73357379e-01     5.06588817e-01     0.00000000e+00    
           4.74384934e-01     5.08022368e-01     0.00000000e+00    
           4.75027919e-01     5.09664834e-01     0.00000000e+00    
           4.75028187e-01     5.13165236e-01     0.00000000e+00    
           4.74385172e-01     5.14807761e-01     0.00000000e+00    
           4.73357558e-01     5.16241372e-01     0.00000000e+00    
           4.72008646e-01     5.17377913e-01     0.00000000e+00    
           4.70421433e-01     5.18147290e-01     0.00000000e+00    
           4.68693614e-01     5.18502235e-01     0.00000000e+00    
           4.66931641e-01     5.18420875e-01     0.00000000e+00    
           5.32303810e-01     5.16964078e-01     0.00000000e+00    
           5.31043947e-01     5.15658796e-01     0.00000000e+00    
           5.30155540e-01     5.14077127e-01     0.00000000e+00    
           5.29696345e-01     5.12322068e-01     0.00000000e+00    
           5.29696345e-01     5.10507941e-01     0.00000000e+00    
           5.30155540e-01     5.08752882e-01     0.00000000e+00    
           5.31043947e-01     5.07171214e-01     0.00000000e+00    
           5.32303810e-01     5.05865932e-01     0.00000000e+00    
           4.68517244e-01     5.32760799e-01     0.00000000e+00    
           4.68509018e-01     5.30844629e-01     0.00000000e+00    
           4.68960851e-01     5.28982460e-01     0.00000000e+00    
           4.69846308e-01     5.27283132e-01     0.00000000e+00    
           4.71113682e-01     5.25845945e-01     0.00000000e+00    
           4.72688884e-01     5.24754822e-01     0.00000000e+00    
           4.74479854e-01     5.24073541e-01     0.00000000e+00    
           4.78284091e-01     5.24073601e-01     0.00000000e+00    
           4.80075032e-01     5.24754822e-01     0.00000000e+00    
           4.81650203e-01     5.25845885e-01     0.00000000e+00    
           4.82917547e-01     5.27283013e-01     0.00000000e+00    
           4.83803004e-01     5.28982282e-01     0.00000000e+00    
           4.84254897e-01     5.30844331e-01     0.00000000e+00    
           4.84246761e-01     5.32760441e-01     0.00000000e+00    
           4.82887864e-01     4.67691004e-01     0.00000000e+00    
           4.81620818e-01     4.69110936e-01     0.00000000e+00    
           4.80051905e-01     4.70188022e-01     0.00000000e+00    
           4.78271484e-01     4.70860153e-01     0.00000000e+00    
           4.76382166e-01     4.71088618e-01     0.00000000e+00    
           4.74492878e-01     4.70860243e-01     0.00000000e+00    
           4.72712427e-01     4.70188200e-01     0.00000000e+00    
           4.71143454e-01     4.69111174e-01     0.00000000e+00    
           4.69876349e-01     4.67691302e-01     0.00000000e+00    
           4.88103986e-01     5.33086061e-01     0.00000000e+00    
           4.87431526e-01     5.31323195e-01     0.00000000e+00    
           4.87231195e-01     5.29447019e-01     0.00000000e+00    
           4.87516224e-01     5.27581930e-01     0.00000000e+00    
           4.88267750e-01     5.25851250e-01     0.00000000e+00    
           4.89436030e-01     5.24369657e-01     0.00000000e+00    
           4.90943670e-01     5.23235261e-01     0.00000000e+00    
           4.92690891e-01     5.22523046e-01     0.00000000e+00    
           4.96432930e-01     5.22523701e-01     0.00000000e+00    
           4.98180002e-01     5.23235798e-01     0.00000000e+00    
           4.99687493e-01     5.24370134e-01     0.00000000e+00    
           5.00855684e-01     5.25851607e-01     0.00000000e+00    
           5.01607120e-01     5.27582109e-01     0.00000000e+00    
           5.01892149e-01     5.29447079e-01     0.00000000e+00    
           5.01691818e-01     5.31323016e-01     0.00000000e+00    
           5.01019418e-01     5.33085763e-01     0.00000000e+00    
           4.98371124e-01     4.67269689e-01     0.00000000e+00    
           4.96539861e-01     4.68064904e-01     0.00000000e+00    
           4.94562000e-01     4.68336672e-01     0.00000000e+00    
           4.92584139e-01     4.68064904e-01     0.00000000e+00    
           4.90752876e-01     4.67269689e-01     0.00000000e+00    
           5.32269001e-01     4.75995690e-01     0.00000000e+00    
           5.31541944e-01     4.77750987e-01     0.00000000e+00    
           5.30385315e-01     4.79258329e-01     0.00000000e+00    
           5.28877974e-01     4.80414927e-01     0.00000000e+00    
[...]
      <PointData>
        <DataArray type="Float32" Name="Displacement" NumberOfComponents="3">
           4.94696840e-04     4.60430165e-04     0.00000000e+00    
           4.91988903e-04     5.61803929e-04     0.00000000e+00    
           5.33951155e-04     4.99979127e-04     0.00000000e+00    
           4.46082908e-04     4.82443109e-04     0.00000000e+00    
           4.92404564e-04     4.38361894e-04     0.00000000e+00    
           4.46082908e-04     4.82443109e-04     0.00000000e+00    
           5.33951155e-04     4.99979127e-04     0.00000000e+00    
           7.07384723e-04     6.48495334e-04     0.00000000e+00    
           7.07034022e-04     7.41387543e-04     0.00000000e+00    
           6.30187977e-04     6.81739999e-04     0.00000000e+00    
           7.03403521e-06     4.13875423e-05     0.00000000e+00    
           7.38474637e-06    -5.15046740e-05     0.00000000e+00    
           6.77862554e-04     6.38817088e-04     0.00000000e+00    
           6.77389617e-04     6.76603580e-04     0.00000000e+00    
           6.21935644e-04     6.42614847e-04     0.00000000e+00    
          -2.26103875e-05    -2.33964420e-05     0.00000000e+00    
          -2.21374412e-05    -6.11829164e-05     0.00000000e+00    
           1.37828785e-04     7.88547550e-05     0.00000000e+00    
           1.33565947e-04     1.70499683e-04     0.00000000e+00    
           6.02244865e-04     5.74935868e-04     0.00000000e+00    
           6.61072554e-04     5.90492331e-04     0.00000000e+00    
           6.33458258e-04     6.53972442e-04     0.00000000e+00    
           6.61072554e-04     5.90492331e-04     0.00000000e+00    
           6.02244865e-04     5.74935868e-04     0.00000000e+00    
           5.47986827e-04     5.08130004e-04     0.00000000e+00    
           5.43713744e-04     5.98676677e-04     0.00000000e+00    
           6.49765250e-04     6.22126798e-04     0.00000000e+00    
           6.52019808e-04     6.62725710e-04     0.00000000e+00    
           2.30055099e-04     2.33419312e-04     0.00000000e+00    
           2.22977455e-04     2.47889373e-04     0.00000000e+00    
           1.90644219e-04     1.62332333e-04     0.00000000e+00    
           1.54643596e-04     1.51973611e-04     0.00000000e+00    
           1.75574838e-04     1.18380165e-04     0.00000000e+00    
           1.54643596e-04     1.51973611e-04     0.00000000e+00    
           1.90644219e-04     1.62332333e-04     0.00000000e+00    
           3.55821074e-04     3.14835081e-04     0.00000000e+00    
           3.55778931e-04     3.57860728e-04     0.00000000e+00    
           1.91219850e-04     1.39241485e-04     0.00000000e+00    
           1.84902354e-04     1.52206369e-04     0.00000000e+00    
           3.59120080e-04     3.11053009e-04     0.00000000e+00    
           3.58628895e-04     3.62041435e-04     0.00000000e+00    
           4.07385291e-04     3.68542009e-04     0.00000000e+00    
           4.04361665e-04     4.59128612e-04     0.00000000e+00    
           3.67424858e-04     3.60042322e-04     0.00000000e+00    
           3.67348373e-04     3.98229546e-04     0.00000000e+00    
           2.91029719e-04     2.25823882e-04     0.00000000e+00    
           2.86413182e-04     3.11022304e-04     0.00000000e+00    
           6.99999975e-04     6.99999975e-04     0.00000000e+00    
           0.00000000e+00     0.00000000e+00     0.00000000e+00    
           0.00000000e+00     0.00000000e+00     0.00000000e+00    
           6.99999975e-04     6.99999975e-04     0.00000000e+00    
           5.10198995e-04     4.65369318e-04     0.00000000e+00    
           5.24753705e-04     4.72863787e-04     0.00000000e+00    
           5.36867767e-04     4.82926698e-04     0.00000000e+00    
           5.45563467e-04     4.94862208e-04     0.00000000e+00    
           5.50405704e-04     5.08521451e-04     0.00000000e+00    
           5.51509787e-04     5.22598857e-04     0.00000000e+00    
           5.49192657e-04     5.35667990e-04     0.00000000e+00    
           5.43261296e-04     5.46729891e-04     0.00000000e+00    
           5.33479440e-04     5.55199978e-04     0.00000000e+00    
           5.20958798e-04     5.60366781e-04     0.00000000e+00    
           5.06900658e-04     5.62673318e-04     0.00000000e+00    
           4.77073510e-04     5.57573338e-04     0.00000000e+00    
           4.63013683e-04     5.50797035e-04     0.00000000e+00    
           4.50964086e-04     5.41335205e-04     0.00000000e+00    
           4.41827666e-04     5.30085876e-04     0.00000000e+00    
           4.36350936e-04     5.17618086e-04     0.00000000e+00    
           4.34665882e-04     5.04954951e-04     0.00000000e+00    
           4.36364528e-04     4.92530817e-04     0.00000000e+00    
           4.41493525e-04     4.80295479e-04     0.00000000e+00    
           4.50472784e-04     4.69345279e-04     0.00000000e+00    
           4.62528784e-04     4.62175085e-04     0.00000000e+00    
           4.78048052e-04     4.59371367e-04     0.00000000e+00    
           4.44179925e-04     4.72761370e-04     0.00000000e+00    
           4.44747100e-04     4.62740631e-04     0.00000000e+00    
           4.47451981e-04     4.53253975e-04     0.00000000e+00    
           4.52823326e-04     4.45528538e-04     0.00000000e+00    
           4.60720737e-04     4.40351170e-04     0.00000000e+00    
           4.70520463e-04     4.37362149e-04     0.00000000e+00    
           4.81246185e-04     4.37084527e-04     0.00000000e+00    
           5.03222866e-04     4.41462180e-04     0.00000000e+00    
           5.13321313e-04     4.46191581e-04     0.00000000e+00    
           5.22157061e-04     4.52772860e-04     0.00000000e+00    
           5.29218116e-04     4.60784213e-04     0.00000000e+00    
           5.34309249e-04     4.69995692e-04     0.00000000e+00    
           5.37055836e-04     4.79743583e-04     0.00000000e+00    
           5.36709384e-04     4.90076724e-04     0.00000000e+00    
           5.27660653e-04     5.08638739e-04     0.00000000e+00    
           5.17950975e-04     5.14639658e-04     0.00000000e+00    
           5.06095821e-04     5.16904169e-04     0.00000000e+00    
           4.93530475e-04     5.16377680e-04     0.00000000e+00    
           4.81438037e-04     5.12761471e-04     0.00000000e+00    
           4.69486899e-04     5.07587916e-04     0.00000000e+00    
           4.58931085e-04     5.00775641e-04     0.00000000e+00    
           4.51096392e-04     4.91947460e-04     0.00000000e+00    
           6.92814996e-04     7.40938704e-04     0.00000000e+00    
           6.79036137e-04     7.38168834e-04     0.00000000e+00    
           6.66064268e-04     7.33252731e-04     0.00000000e+00    
           6.54404983e-04     7.26112048e-04     0.00000000e+00    
           6.44617190e-04     7.16934446e-04     0.00000000e+00    
           6.36933371e-04     7.06224178e-04     0.00000000e+00    
           6.31836127e-04     6.94341841e-04     0.00000000e+00    
           6.32121577e-04     6.68875058e-04     0.00000000e+00    
           6.37245073e-04     6.57473109e-04     0.00000000e+00    
           6.45026332e-04     6.48490502e-04     0.00000000e+00    
           6.55361509e-04     6.42419502e-04     0.00000000e+00    
           6.66798383e-04     6.39935140e-04     0.00000000e+00    
           6.79161632e-04     6.40537823e-04     0.00000000e+00    
           6.92938280e-04     6.43109030e-04     0.00000000e+00    
           2.10695653e-05    -4.37768467e-05     0.00000000e+00    
           3.25417532e-05    -3.38589271e-05     0.00000000e+00    
           4.09343520e-05    -2.23261923e-05     0.00000000e+00    
           4.58205723e-05    -9.98448468e-06     0.00000000e+00    
           4.68562721e-05     2.92130608e-06     0.00000000e+00    
           4.48478786e-05     1.47688397e-05     0.00000000e+00    
           3.97193253e-05     2.52661557e-05     0.00000000e+00    
           3.14911231e-05     3.35449367e-05     0.00000000e+00    
           1.99768110e-05     3.88927074e-05     0.00000000e+00    
           6.70731359e-04     6.78008073e-04     0.00000000e+00    
           6.63403829e-04     6.77198113e-04     0.00000000e+00    
           6.55021868e-04     6.74969167e-04     0.00000000e+00    
           6.45650551e-04     6.71035144e-04     0.00000000e+00    
           6.36536512e-04     6.66283304e-04     0.00000000e+00    
           6.29135233e-04     6.60516438e-04     0.00000000e+00    
           6.24394044e-04     6.54085597e-04     0.00000000e+00    
           6.21923653e-04     6.48097368e-04     0.00000000e+00    
           6.23826578e-04     6.37522840e-04     0.00000000e+00    
           6.27519563e-04     6.33087999e-04     0.00000000e+00    
           6.32751326e-04     6.29817485e-04     0.00000000e+00    
           6.39026111e-04     6.27712172e-04     0.00000000e+00    
           6.45929715e-04     6.27130270e-04     0.00000000e+00    
           6.53748168e-04     6.27714559e-04     0.00000000e+00    
           6.62110106e-04     6.29888906e-04     0.00000000e+00    
           6.70483161e-04     6.33491029e-04     0.00000000e+00    
          -1.61945336e-05    -5.45085277e-05     0.00000000e+00    
          -1.24112385e-05    -4.72342981e-05     0.00000000e+00    
          -1.11443378e-05    -3.99800083e-05     0.00000000e+00    
          -1.26492241e-05    -3.30054390e-05     0.00000000e+00    
          -1.66952050e-05    -2.72306879e-05     0.00000000e+00    
           1.51089305e-04     8.21076392e-05     0.00000000e+00    
           1.62713710e-04     8.78678402e-05     0.00000000e+00    
           1.72251268e-04     9.56048389e-05     0.00000000e+00    
           1.80238494e-04     1.05536950e-04     0.00000000e+00    
           1.85867291e-04     1.17548472e-04     0.00000000e+00    
           1.87842743e-04     1.30726607e-04     0.00000000e+00    
           1.86837729e-04     1.44426289e-04     0.00000000e+00    
           1.81548297e-04     1.56063921e-04     0.00000000e+00    
           1.72927757e-04     1.65213787e-04     0.00000000e+00    
           1.61143631e-04     1.70670828e-04     0.00000000e+00    
           1.47472500e-04     1.72465865e-04     0.00000000e+00    
           1.19536140e-04     1.66140846e-04     0.00000000e+00    
           1.06769534e-04     1.58839350e-04     0.00000000e+00    
           9.59861718e-05     1.49251486e-04     0.00000000e+00    
           8.80560692e-05     1.37694355e-04     0.00000000e+00    
           8.34886669e-05     1.24917366e-04     0.00000000e+00    
           8.23679948e-05     1.12100555e-04     0.00000000e+00    
           8.44046444e-05     1.00297540e-04     0.00000000e+00    
           8.96813872e-05     9.03928303e-05     0.00000000e+00    
           9.85739316e-05     8.31292782e-05     0.00000000e+00    
           1.10344728e-04     7.89434271e-05     0.00000000e+00    
           1.23947349e-04     7.74950822e-05     0.00000000e+00    
           6.68515568e-04     5.99136634e-04     0.00000000e+00    
           6.73803326e-04     6.09294628e-04     0.00000000e+00    
           6.76608644e-04     6.20298437e-04     0.00000000e+00    
           6.76959928e-04     6.30961149e-04     0.00000000e+00    
           6.74648385e-04     6.40340557e-04     0.00000000e+00    
           6.69380242e-04     6.47817447e-04     0.00000000e+00    
           6.61870174e-04     6.52405084e-04     0.00000000e+00    
           6.53448282e-04     6.54748583e-04     0.00000000e+00    
           6.44330401e-04     6.55058131e-04     0.00000000e+00    
           6.20861945e-04     6.50926202e-04     0.00000000e+00    
           6.08034490e-04     6.45781518e-04     0.00000000e+00    
           5.97240753e-04     6.38413709e-04     0.00000000e+00    
           5.89105068e-04     6.29669288e-04     0.00000000e+00    
           5.84127556e-04     6.19935454e-04     0.00000000e+00    
           5.81851695e-04     6.09890965e-04     0.00000000e+00    
           5.82482317e-04     5.99471095e-04     0.00000000e+00    
           5.85740956e-04     5.89102274e-04     0.00000000e+00    
           5.92441764e-04     5.80723688e-04     0.00000000e+00    
           6.12622942e-04     5.72709367e-04     0.00000000e+00    
           6.23345724e-04     5.73066121e-04     0.00000000e+00    
           6.33906398e-04     5.75345068e-04     0.00000000e+00    
           6.43742911e-04     5.79416868e-04     0.00000000e+00    
           6.52899093e-04     5.84342866e-04     0.00000000e+00    
           5.61085239e-04     5.12404484e-04     0.00000000e+00    
           5.73402387e-04     5.19108144e-04     0.00000000e+00    
           5.84849797e-04     5.27048891e-04     0.00000000e+00    
           5.93196950e-04     5.36887266e-04     0.00000000e+00    
           5.98608807e-04     5.47416159e-04     0.00000000e+00    
           6.00678264e-04     5.58034866e-04     0.00000000e+00    
           5.99642110e-04     5.69302356e-04     0.00000000e+00    
           5.95792779e-04     5.80541673e-04     0.00000000e+00    
           5.89211530e-04     5.89820847e-04     0.00000000e+00    
           5.80006978e-04     5.96730737e-04     0.00000000e+00    
           5.68319403e-04     6.00279309e-04     0.00000000e+00    
           5.56194223e-04     6.00252650e-04     0.00000000e+00    
           5.31665923e-04     5.94687124e-04     0.00000000e+00    
           5.20687841e-04     5.89017174e-04     0.00000000e+00    
           5.10959944e-04     5.81671309e-04     0.00000000e+00    
           5.03105461e-04     5.72221586e-04     0.00000000e+00    
           4.97447385e-04     5.61182795e-04     0.00000000e+00    
           4.94417618e-04     5.49107848e-04     0.00000000e+00    
           4.94556152e-04     5.37459389e-04     0.00000000e+00    
           4.97099012e-04     5.26931079e-04     0.00000000e+00    
           5.02913957e-04     5.18166227e-04     0.00000000e+00    
           5.11645863e-04     5.11702383e-04     0.00000000e+00    
           5.22644084e-04     5.07814460e-04     0.00000000e+00    
           5.35034807e-04     5.06641518e-04     0.00000000e+00    
           6.58054021e-04     6.24650042e-04     0.00000000e+00    
           6.66433247e-04     6.28772541e-04     0.00000000e+00    
           6.73021830e-04     6.34265773e-04     0.00000000e+00    
           6.77109754e-04     6.40456099e-04     0.00000000e+00    
           6.78732293e-04     6.46823610e-04     0.00000000e+00    
           6.77939446e-04     6.52877381e-04     0.00000000e+00    
           6.75143790e-04     6.57968863e-04     0.00000000e+00    
           6.70730136e-04     6.61606551e-04     0.00000000e+00    
           6.65050349e-04     6.63591723e-04     0.00000000e+00    
           6.58915844e-04     6.63524144e-04     0.00000000e+00    
           6.44566957e-04     6.60636637e-04     0.00000000e+00    
           6.37173303e-04     6.56960590e-04     0.00000000e+00    
           6.30953989e-04     6.51531038e-04     0.00000000e+00    
           6.26578927e-04     6.44699496e-04     0.00000000e+00    
           6.24332170e-04     6.36745011e-04     0.00000000e+00    
           6.24807144e-04     6.29209739e-04     0.00000000e+00    
           6.27266825e-04     6.23509288e-04     0.00000000e+00    
           6.31677220e-04     6.20184990e-04     0.00000000e+00    
           6.36832556e-04     6.19606930e-04     0.00000000e+00    
           6.42449362e-04     6.20599079e-04     0.00000000e+00    
           2.34759747e-04     2.35613988e-04     0.00000000e+00    
           2.38211927e-04     2.37739645e-04     0.00000000e+00    
           2.40801179e-04     2.40577909e-04     0.00000000e+00    
           2.42961614e-04     2.44660157e-04     0.00000000e+00    
           2.43750983e-04     2.48545664e-04     0.00000000e+00    
           2.43373492e-04     2.51446792e-04     0.00000000e+00    
           2.42294162e-04     2.53204955e-04     0.00000000e+00    
           2.40042194e-04     2.54105224e-04     0.00000000e+00    
           2.35814252e-04     2.53631268e-04     0.00000000e+00    
           2.31402373e-04     2.52137135e-04     0.00000000e+00    
           2.26912438e-04     2.50136043e-04     0.00000000e+00    
           2.19226931e-04     2.46135576e-04     0.00000000e+00    
           2.16154527e-04     2.43912786e-04     0.00000000e+00    
           2.14179789e-04     2.41748712e-04     0.00000000e+00    
           2.12460625e-04     2.39313842e-04     0.00000000e+00    
           2.11221311e-04     2.36809399e-04     0.00000000e+00    
           2.10648650e-04     2.34400562e-04     0.00000000e+00    
           2.11469101e-04     2.32157035e-04     0.00000000e+00    
           2.13493622e-04     2.30430654e-04     0.00000000e+00    
           2.16825138e-04     2.29773039e-04     0.00000000e+00    
           2.21000722e-04     2.30023827e-04     0.00000000e+00    
           2.25598473e-04     2.31392172e-04     0.00000000e+00    
           1.50235734e-04     1.47556711e-04     0.00000000e+00    
           1.46577600e-04     1.41953424e-04     0.00000000e+00    
           1.44555321e-04     1.35298746e-04     0.00000000e+00    
           1.44547084e-04     1.28225816e-04     0.00000000e+00    
           1.46470979e-04     1.22273588e-04     0.00000000e+00    
           1.50698528e-04     1.17402582e-04     0.00000000e+00    
           1.56809096e-04     1.14708157e-04     0.00000000e+00    
           1.63378412e-04     1.15040864e-04     0.00000000e+00    
           1.69585823e-04     1.16493793e-04     0.00000000e+00    
           1.81566560e-04     1.20757613e-04     0.00000000e+00    
           1.87468991e-04     1.24139377e-04     0.00000000e+00    
           1.93297659e-04     1.29329710e-04     0.00000000e+00    
           1.97992806e-04     1.35386756e-04     0.00000000e+00    
           2.01605362e-04     1.41717785e-04     0.00000000e+00    
           2.03111835e-04     1.47667641e-04     0.00000000e+00    
           2.02902331e-04     1.52852066e-04     0.00000000e+00    
           2.00787064e-04     1.57251663e-04     0.00000000e+00    
           1.96643043e-04     1.60508047e-04     0.00000000e+00    
           1.83532073e-04     1.62316093e-04     0.00000000e+00    
           1.76030531e-04     1.60602518e-04     0.00000000e+00    
           1.68340950e-04     1.58563998e-04     0.00000000e+00    
           1.60822441e-04     1.55840244e-04     0.00000000e+00    
           3.61898332e-04     3.18012811e-04     0.00000000e+00    
           3.67729372e-04     3.21319385e-04     0.00000000e+00    
           3.72992799e-04     3.25286761e-04     0.00000000e+00    
           3.77889955e-04     3.30553477e-04     0.00000000e+00    
           3.81160702e-04     3.36923025e-04     0.00000000e+00    
           3.82314000e-04     3.43808642e-04     0.00000000e+00    
           3.81513819e-04     3.50407616e-04     0.00000000e+00    
           3.79088771e-04     3.55440803e-04     0.00000000e+00    
           3.75427393e-04     3.58331075e-04     0.00000000e+00    
           3.70453956e-04     3.59492376e-04     0.00000000e+00    
           3.63836065e-04     3.59104946e-04     0.00000000e+00    
           3.47491034e-04     3.54950869e-04     0.00000000e+00    
           3.40022088e-04     3.50151560e-04     0.00000000e+00    
           3.33802454e-04     3.43968131e-04     0.00000000e+00    
           3.29126226e-04     3.37004429e-04     0.00000000e+00    
           3.26385314e-04     3.30196082e-04     0.00000000e+00    
           3.25308356e-04     3.23864078e-04     0.00000000e+00    
           3.26062611e-04     3.18596256e-04     0.00000000e+00    
           3.29512201e-04     3.14272678e-04     0.00000000e+00    
           3.35068500e-04     3.11556068e-04     0.00000000e+00    