<?xml version="1.0"?>
<VTKFile type="UnstructuredGrid" version="0.1">
  <UnstructuredGrid>
    <Piece NumberOfPoints="1034" NumberOfCells="1614">
      <Points>
        <DataArray type="Float32" NumberOfComponents="3">
           5.21582007e-01     5.11657000e-01     0.00000000e+00    
           5.07319987e-01     5.11657000e-01     0.00000000e+00    
           4.65243995e-01     5.17907977e-01     0.00000000e+00    
           4.65243995e-01     5.04921973e-01     0.00000000e+00    
           4.75246996e-01     5.11415005e-01     0.00000000e+00    
           5.33852994e-01     5.04921973e-01     0.00000000e+00    
           5.33852994e-01     5.17907977e-01     0.00000000e+00    
           4.83779997e-01     5.34618974e-01     0.00000000e+00    
           4.68984991e-01     5.34618974e-01     0.00000000e+00    
           4.76381987e-01     5.23841977e-01     0.00000000e+00    
           4.68984991e-01     4.66010004e-01     0.00000000e+00    
           4.83779997e-01     4.66010004e-01     0.00000000e+00    
           4.99920011e-01     5.34618974e-01     0.00000000e+00    
           4.89203990e-01     5.34618974e-01     0.00000000e+00    
           4.94562000e-01     5.22280991e-01     0.00000000e+00    
           4.89203990e-01     4.66010004e-01     0.00000000e+00    
           4.99920011e-01     4.66010004e-01     0.00000000e+00    
           5.32517016e-01     4.74112004e-01     0.00000000e+00    
           5.17961025e-01     4.74112004e-01     0.00000000e+00    
           5.33852994e-01     5.19801974e-01     0.00000000e+00    
           5.33852994e-01     5.29603004e-01     0.00000000e+00    
           5.19536972e-01     5.24702013e-01     0.00000000e+00    
           4.65243995e-01     5.29603004e-01     0.00000000e+00    
           4.65243995e-01     5.19801974e-01     0.00000000e+00    
           4.92487997e-01     5.17117977e-01     0.00000000e+00    
           4.76904988e-01     5.17117977e-01     0.00000000e+00    
           5.17996013e-01     5.27033985e-01     0.00000000e+00    
           5.04473984e-01     5.27033985e-01     0.00000000e+00    
           5.08446991e-01     4.83435005e-01     0.00000000e+00    
           4.94414002e-01     4.83435005e-01     0.00000000e+00    
           4.65243995e-01     4.83101994e-01     0.00000000e+00    
           4.65243995e-01     4.74415004e-01     0.00000000e+00    
           4.78336990e-01     4.78758007e-01     0.00000000e+00    
           5.33852994e-01     4.74415004e-01     0.00000000e+00    
           5.33852994e-01     4.83101994e-01     0.00000000e+00    
           4.80668008e-01     4.95810986e-01     0.00000000e+00    
           4.66084987e-01     4.95810986e-01     0.00000000e+00    
           4.93930012e-01     4.79214013e-01     0.00000000e+00    
           4.78967011e-01     4.79214013e-01     0.00000000e+00    
           5.09284973e-01     4.97658014e-01     0.00000000e+00    
           4.95503992e-01     4.97658014e-01     0.00000000e+00    
           5.33011973e-01     5.01751006e-01     0.00000000e+00    
           5.17829001e-01     5.01751006e-01     0.00000000e+00    
           4.95451003e-01     5.00564992e-01     0.00000000e+00    
           4.80922014e-01     5.00564992e-01     0.00000000e+00    
           5.25367022e-01     4.88312006e-01     0.00000000e+00    
           5.09521008e-01     4.88312006e-01     0.00000000e+00    
           4.65243995e-01     5.34618974e-01     0.00000000e+00    
           4.65243995e-01     4.66010004e-01     0.00000000e+00    
           5.33852994e-01     4.66010004e-01     0.00000000e+00    
           5.33852994e-01     5.34618974e-01     0.00000000e+00    
           5.21338999e-01     5.13502657e-01     0.00000000e+00    
           5.20626605e-01     5.15222490e-01     0.00000000e+00    
           5.19493401e-01     5.16699374e-01     0.00000000e+00    
           5.18016517e-01     5.17832637e-01     0.00000000e+00    
           5.16296625e-01     5.18545032e-01     0.00000000e+00    
           5.14451027e-01     5.18787980e-01     0.00000000e+00    
           5.12605369e-01     5.18545032e-01     0.00000000e+00    
           5.10885477e-01     5.17832637e-01     0.00000000e+00    
           5.09408593e-01     5.16699374e-01     0.00000000e+00    
           5.08275390e-01     5.15222490e-01     0.00000000e+00    
           5.07562995e-01     5.13502657e-01     0.00000000e+00    
           5.07562995e-01     5.09811342e-01     0.00000000e+00    
           5.08275390e-01     5.08091509e-01     0.00000000e+00    
           5.09408593e-01     5.06614625e-01     0.00000000e+00    
           5.10885477e-01     5.05481362e-01     0.00000000e+00    
           5.12605369e-01     5.04768968e-01     0.00000000e+00    
           5.14451027e-01     5.04526019e-01     0.00000000e+00    
           5.16296625e-01     5.04768968e-01     0.00000000e+00    
           5.18016517e-01     5.05481362e-01     0.00000000e+00    
           5.19493401e-01     5.06614625e-01     0.00000000e+00    
           5.20626605e-01     5.08091509e-01     0.00000000e+00    
           5.21338999e-01     5.09811342e-01     0.00000000e+00    
           4.66931671e-01     5.04409373e-01     0.00000000e+00    
           4.68693614e-01     5.04328012e-01     0.00000000e+00    
           4.70421344e-01     5.04682958e-01     0.00000000e+00    
           4.72008497e-01     5.05452335e-01     0.00000000e+00    
           4.73357379e-01     5.06588817e-01     0.00000000e+00    
           4.74384934e-01     5.08022368e-01     0.00000000e+00    
           4.75027919e-01     5.09664834e-01     0.00000000e+00    
           4.75028187e-01     5.13165236e-01     0.00000000e+00    
           4.74385172e-01     5.14807761e-01     0.00000000e+00    
           4.73357558e-01     5.16241372e-01     0.00000000e+00    
           4.72008646e-01     5.17377913e-01     0.00000000e+00    
           4.70421433e-01     5.18147290e-01     0.00000000e+00    
           4.68693614e-01     5.18502235e-01     0.00000000e+00    
           4.66931641e-01     5.18420875e-01     0.00000000e+00    
           5.32303810e-01     5.16964078e-01     0.00000000e+00    
           5.31043947e-01     5.15658796e-01     0.00000000e+00    
           5.30155540e-01     5.14077127e-01     0.00000000e+00    
           5.29696345e-01     5.12322068e-01     0.00000000e+00    
           5.29696345e-01     5.10507941e-01     0.00000000e+00    
           5.30155540e-01     5.08752882e-01     0.00000000e+00    
           5.31043947e-01     5.07171214e-01     0.00000000e+00    
           5.32303810e-01     5.05865932e-01     0.00000000e+00    
           4.68517244e-01     5.32760799e-01     0.00000000e+00    
           4.68509018e-01     5.30844629e-01     0.00000000e+00    
           4.68960851e-01     5.28982460e-01     0.00000000e+00    
           4.69846308e-01     5.27283132e-01     0.00000000e+00    
           4.71113682e-01     5.25845945e-01     0.00000000e+00    
           4.72688884e-01     5.24754822e-01     0.00000000e+00    
           4.74479854e-01     5.24073541e-01     0.00000000e+00    
           4.78284091e-01     5.24073601e-01     0.00000000e+00    
           4.80075032e-01     5.24754822e-01     0.00000000e+00    
           4.81650203e-01     5.25845885e-01     0.00000000e+00    
           4.82917547e-01     5.27283013e-01     0.00000000e+00    
           4.83803004e-01     5.28982282e-01     0.00000000e+00    
           4.84254897e-01     5.30844331e-01     0.00000000e+00    
           4.84246761e-01     5.32760441e-01     0.00000000e+00    
           4.82887864e-01     4.67691004e-01     0.00000000e+00    
           4.81620818e-01     4.69110936e-01     0.00000000e+00    
           4.80051905e-01     4.70188022e-01     0.00000000e+00    
           4.78271484e-01     4.70860153e-01     0.00000000e+00    
           4.76382166e-01     4.71088618e-01     0.00000000e+00    
           4.74492878e-01     4.70860243e-01     0.00000000e+00    
           4.72712427e-01     4.70188200e-01     0.00000000e+00    
           4.71143454e-01     4.69111174e-01     0.00000000e+00    
           4.69876349e-01     4.67691302e-01     0.00000000e+00    
           4.88103986e-01     5.33086061e-01     0.00000000e+00    
           4.87431526e-01     5.31323195e-01     0.00000000e+00    
           4.87231195e-01     5.29447019e-01     0.00000000e+00    
           4.87516224e-01     5.27581930e-01     0.00000000e+00    
           4.88267750e-01     5.25851250e-01     0.00000000e+00    
           4.89436030e-01     5.24369657e-01     0.00000000e+00    
           4.90943670e-01     5.23235261e-01     0.00000000e+00    
           4.92690891e-01     5.22523046e-01     0.00000000e+00    
           4.96432930e-01     5.22523701e-01     0.00000000e+00    
           4.98180002e-01     5.23235798e-01     0.00000000e+00    
           4.99687493e-01     5.24370134e-01     0.00000000e+00    
           5.00855684e-01     5.25851607e-01     0.00000000e+00    
           5.01607120e-01     5.27582109e-01     0.00000000e+00    
           5.01892149e-01     5.29447079e-01     0.00000000e+00    
           5.01691818e-01     5.31323016e-01     0.00000000e+00    
           5.01019418e-01     5.33085763e-01     0.00000000e+00    
           4.98371124e-01     4.67269689e-01     0.00000000e+00    
           4.96539861e-01     4.68064904e-01     0.00000000e+00    
           4.94562000e-01     4.68336672e-01     0.00000000e+00    
           4.92584139e-01     4.68064904e-01     0.00000000e+00    
           4.90752876e-01     4.67269689e-01     0.00000000e+00    
           5.32269001e-01     4.75995690e-01     0.00000000e+00    
           5.31541944e-01     4.77750987e-01     0.00000000e+00    
           5.30385315e-01     4.79258329e-01     0.00000000e+00    
           5.28877974e-01     4.80414927e-01     0.00000000e+00    
[...]
      <PointData>
        <DataArray type="Float32" Name="Displacement" NumberOfComponents="3">
           3.14690726e-04     2.87733448e-04     0.00000000e+00    
           3.13180120e-04     3.53218406e-04     0.00000000e+00    
           3.34619283e-04     3.12344404e-04     0.00000000e+00    
           2.80025095e-04     2.97464925e-04     0.00000000e+00    
           3.08876100e-04     2.75433704e-04     0.00000000e+00    
           2.80025095e-04     2.97464925e-04     0.00000000e+00    
           3.34619283e-04     3.12344404e-04     0.00000000e+00    
           4.56769398e-04     4.13130911e-04     0.00000000e+00    
           4.56587441e-04     4.80472285e-04     0.00000000e+00    
           4.00317716e-04     4.36910486e-04     0.00000000e+00    
           6.58744420e-06     3.04722817e-05     0.00000000e+00    
           6.76940044e-06    -3.68690999e-05     0.00000000e+00    
           4.32118133e-04     3.97541648e-04     0.00000000e+00    
           4.32520843e-04     4.21864243e-04     0.00000000e+00    
           3.94516945e-04     3.97968746e-04     0.00000000e+00    
          -1.74791712e-05    -2.81357588e-05     0.00000000e+00    
          -1.78818791e-05    -5.24583447e-05     0.00000000e+00    
           8.85076297e-05     5.24783245e-05     0.00000000e+00    
           8.57678824e-05     1.15345152e-04     0.00000000e+00    
           3.81947408e-04     3.64392850e-04     0.00000000e+00    
           4.22938261e-04     3.77019111e-04     0.00000000e+00    
           4.04167688e-04     4.19137010e-04     0.00000000e+00    
           4.22938261e-04     3.77019111e-04     0.00000000e+00    
           3.81947408e-04     3.64392850e-04     0.00000000e+00    
           3.48335365e-04     3.23090644e-04     0.00000000e+00    
           3.45130771e-04     3.81558260e-04     0.00000000e+00    
           4.14982642e-04     3.95138923e-04     0.00000000e+00    
           4.16605675e-04     4.18989424e-04     0.00000000e+00    
           1.50582462e-04     1.52685272e-04     0.00000000e+00    
           1.45047379e-04     1.57268922e-04     0.00000000e+00    
           1.26201310e-04     1.03923368e-04     0.00000000e+00    
           9.80370824e-05     9.59731333e-05     0.00000000e+00    
           1.13915587e-04     6.89303415e-05     0.00000000e+00    
           9.80370824e-05     9.59731333e-05     0.00000000e+00    
           1.26201310e-04     1.03923368e-04     0.00000000e+00    
           2.25157317e-04     1.95431989e-04     0.00000000e+00    
           2.25882628e-04     2.20966831e-04     0.00000000e+00    
           1.25437058e-04     8.61380686e-05     0.00000000e+00    
           1.20279474e-04     8.95477788e-05     0.00000000e+00    
           2.24796357e-04     1.93151602e-04     0.00000000e+00    
           2.24965275e-04     2.26360673e-04     0.00000000e+00    
           2.58703454e-04     2.33629369e-04     0.00000000e+00    
           2.56638770e-04     2.81920511e-04     0.00000000e+00    
           2.31394297e-04     2.26251999e-04     0.00000000e+00    
           2.31731901e-04     2.53247097e-04     0.00000000e+00    
           1.90442093e-04     1.56812181e-04     0.00000000e+00    
           1.87716883e-04     2.05617951e-04     0.00000000e+00    
           4.49999992e-04     4.49999992e-04     0.00000000e+00    
           0.00000000e+00     0.00000000e+00     0.00000000e+00    
           0.00000000e+00     0.00000000e+00     0.00000000e+00    
           4.49999992e-04     4.49999992e-04     0.00000000e+00    
           3.25085624e-04     2.91440665e-04     0.00000000e+00    
           3.34851473e-04     2.96775164e-04     0.00000000e+00    
           3.42902669e-04     3.03559616e-04     0.00000000e+00    
           3.48621310e-04     3.11249809e-04     0.00000000e+00    
           3.51792434e-04     3.20146326e-04     0.00000000e+00    
           3.52553208e-04     3.29447968e-04     0.00000000e+00    
           3.51061637e-04     3.37960548e-04     0.00000000e+00    
           3.47110938e-04     3.44794244e-04     0.00000000e+00    
           3.40627244e-04     3.49872047e-04     0.00000000e+00    
           3.32389202e-04     3.52846022e-04     0.00000000e+00    
           3.23094951e-04     3.54066811e-04     0.00000000e+00    
           3.03227629e-04     3.50116577e-04     0.00000000e+00    
           2.93870486e-04     3.45395558e-04     0.00000000e+00    
           2.85879476e-04     3.39125167e-04     0.00000000e+00    
           2.79835949e-04     3.31976538e-04     0.00000000e+00    
           2.76274513e-04     3.24078894e-04     0.00000000e+00    
           2.75193830e-04     3.15924437e-04     0.00000000e+00    
           2.76293809e-04     3.07735521e-04     0.00000000e+00    
           2.79584696e-04     2.99520092e-04     0.00000000e+00    
           2.85357790e-04     2.92105600e-04     0.00000000e+00    
           2.93218094e-04     2.87878735e-04     0.00000000e+00    
           3.03540321e-04     2.86569441e-04     0.00000000e+00    
           2.79424654e-04     2.92555604e-04     0.00000000e+00    
           2.79844593e-04     2.87005125e-04     0.00000000e+00    
           2.81442801e-04     2.81578890e-04     0.00000000e+00    
           2.84705049e-04     2.77443411e-04     0.00000000e+00    
           2.89477059e-04     2.75001657e-04     0.00000000e+00    
           2.95428414e-04     2.73803307e-04     0.00000000e+00    
           3.01971944e-04     2.74200458e-04     0.00000000e+00    
           3.15489509e-04     2.77618383e-04     0.00000000e+00    
           3.21521278e-04     2.80473148e-04     0.00000000e+00    
           3.26821115e-04     2.84327281e-04     0.00000000e+00    
           3.31129704e-04     2.88994081e-04     0.00000000e+00    
           3.34353099e-04     2.94359139e-04     0.00000000e+00    
           3.36209603e-04     3.00005864e-04     0.00000000e+00    
           3.36146099e-04     3.06172966e-04     0.00000000e+00    
           3.30643263e-04     3.17624392e-04     0.00000000e+00    
           3.24425549e-04     3.20749794e-04     0.00000000e+00    
           3.16893042e-04     3.21264990e-04     0.00000000e+00    
           3.08882736e-04     3.20082210e-04     0.00000000e+00    
           3.01100081e-04     3.16813908e-04     0.00000000e+00    
           2.93366000e-04     3.12501477e-04     0.00000000e+00    
           2.86682305e-04     3.07753420e-04     0.00000000e+00    
           2.82331981e-04     3.02292465e-04     0.00000000e+00    
           4.46147635e-04     4.79950424e-04     0.00000000e+00    
           4.36027243e-04     4.77727910e-04     0.00000000e+00    
           4.26588056e-04     4.74020839e-04     0.00000000e+00    
           4.18169191e-04     4.68832761e-04     0.00000000e+00    
           4.11053625e-04     4.62188123e-04     0.00000000e+00    
           4.05395578e-04     4.54445370e-04     0.00000000e+00    
           4.01598692e-04     4.45914658e-04     0.00000000e+00    
           4.01621714e-04     4.27600608e-04     0.00000000e+00    
           4.05225379e-04     4.19243588e-04     0.00000000e+00    
           4.10729233e-04     4.12850059e-04     0.00000000e+00    
           4.18069569e-04     4.08595923e-04     0.00000000e+00    
           4.26359649e-04     4.06720268e-04     0.00000000e+00    
           4.35575261e-04     4.06975509e-04     0.00000000e+00    
           4.45937243e-04     4.08925465e-04     0.00000000e+00    
           1.70803360e-05    -3.08432791e-05     0.00000000e+00    
           2.57348274e-05    -2.32491020e-05     0.00000000e+00    
           3.20226136e-05    -1.48108102e-05     0.00000000e+00    
           3.55782577e-05    -6.01867760e-06     0.00000000e+00    
           3.62959290e-05     3.56447094e-06     0.00000000e+00    
           3.48462017e-05     1.25884171e-05     0.00000000e+00    
           3.09032184e-05     2.01132134e-05     0.00000000e+00    
           2.45274878e-05     2.55460491e-05     0.00000000e+00    
           1.60553282e-05     2.89369254e-05     0.00000000e+00    
           4.28030617e-04     4.22610960e-04     0.00000000e+00    
           4.22928541e-04     4.21914505e-04     0.00000000e+00    
           4.16939700e-04     4.20115248e-04     0.00000000e+00    
           4.10142820e-04     4.16876777e-04     0.00000000e+00    
           4.03444312e-04     4.12516471e-04     0.00000000e+00    
           3.98109813e-04     4.07894375e-04     0.00000000e+00    
           3.95066629e-04     4.03570390e-04     0.00000000e+00    
           3.93948256e-04     4.00447199e-04     0.00000000e+00    
           3.95944429e-04     3.95304261e-04     0.00000000e+00    
           3.98383330e-04     3.92850750e-04     0.00000000e+00    
           4.01821133e-04     3.91035952e-04     0.00000000e+00    
           4.05912811e-04     3.89874302e-04     0.00000000e+00    
           4.10471053e-04     3.89587425e-04     0.00000000e+00    
           4.15692921e-04     3.90039466e-04     0.00000000e+00    
           4.21319186e-04     3.91518610e-04     0.00000000e+00    
           4.27013816e-04     3.93946044e-04     0.00000000e+00    
          -1.37278848e-05    -4.80077688e-05     0.00000000e+00    
          -1.10108331e-05    -4.32269480e-05     0.00000000e+00    
          -9.98469204e-06    -3.85648491e-05     0.00000000e+00    
          -1.09059856e-05    -3.40919323e-05     0.00000000e+00    
          -1.35548044e-05    -3.04613513e-05     0.00000000e+00    
           9.77729505e-05     5.51039957e-05     0.00000000e+00    
           1.05572028e-04     5.89093943e-05     0.00000000e+00    
           1.12089758e-04     6.38353376e-05     0.00000000e+00    
           1.17818352e-04     7.06030332e-05     0.00000000e+00    
           1.21940444e-04     7.90306076e-05     0.00000000e+00    
           1.23553255e-04     8.84250185e-05     0.00000000e+00    
           1.23156671e-04     9.85792285e-05     0.00000000e+00    
           1.19547723e-04     1.06950931e-04     0.00000000e+00    
           1.13423594e-04     1.12990761e-04     0.00000000e+00    
           1.05118015e-04     1.16194002e-04     0.00000000e+00    
           9.55363721e-05     1.17016600e-04     0.00000000e+00    
           7.58825699e-05     1.12024070e-04     0.00000000e+00    
           6.68750363e-05     1.06697444e-04     0.00000000e+00    
           5.92537617e-05     9.98308096e-05     0.00000000e+00    
           5.36536572e-05     9.15952769e-05     0.00000000e+00    
           5.04021773e-05     8.24114759e-05     0.00000000e+00    
           4.95463028e-05     7.31033433e-05     0.00000000e+00    
           5.10097307e-05     6.48970527e-05     0.00000000e+00    
           5.47905292e-05     5.84292065e-05     0.00000000e+00    
           6.10599673e-05     5.40025430e-05     0.00000000e+00    
           6.92060130e-05     5.15839129e-05     0.00000000e+00    
           7.87076933e-05     5.09881284e-05     0.00000000e+00    
           4.28078696e-04     3.83021223e-04     0.00000000e+00    
           4.31764754e-04     3.90181143e-04     0.00000000e+00    
           4.33745037e-04     3.98105651e-04     0.00000000e+00    
           4.34014801e-04     4.05726809e-04     0.00000000e+00    
           4.32448112e-04     4.12039604e-04     0.00000000e+00    
           4.28700267e-04     4.16623458e-04     0.00000000e+00    
           4.23535035e-04     4.19111573e-04     0.00000000e+00    
           4.17815172e-04     4.20226832e-04     0.00000000e+00    
           4.11631714e-04     4.20112803e-04     0.00000000e+00    
           3.95437877e-04     4.16787923e-04     0.00000000e+00    
           3.86480271e-04     4.12995316e-04     0.00000000e+00    
           3.78899189e-04     4.07769461e-04     0.00000000e+00    
           3.73233663e-04     4.01890720e-04     0.00000000e+00    
           3.69748130e-04     3.95378214e-04     0.00000000e+00    
           3.68052453e-04     3.88535205e-04     0.00000000e+00    
           3.68334964e-04     3.81270889e-04     0.00000000e+00    
           3.70394439e-04     3.73782968e-04     0.00000000e+00    
           3.75023606e-04     3.67972825e-04     0.00000000e+00    
           3.89253168e-04     3.63384694e-04     0.00000000e+00    
           3.96772171e-04     3.64060950e-04     0.00000000e+00    
           4.04171413e-04     3.66022519e-04     0.00000000e+00    
           4.11016255e-04     3.69197165e-04     0.00000000e+00    
           4.17324511e-04     3.72775452e-04     0.00000000e+00    
           3.57363198e-04     3.26463603e-04     0.00000000e+00    
           3.66057473e-04     3.31879797e-04     0.00000000e+00    
           3.74063238e-04     3.37873120e-04     0.00000000e+00    
           3.79599107e-04     3.44532338e-04     0.00000000e+00    
           3.82821250e-04     3.50870949e-04     0.00000000e+00    
           3.83588369e-04     3.56778357e-04     0.00000000e+00    
           3.82855389e-04     3.63787782e-04     0.00000000e+00    
           3.80302867e-04     3.71231552e-04     0.00000000e+00    
           3.75833130e-04     3.77310993e-04     0.00000000e+00    
           3.69577581e-04     3.81533435e-04     0.00000000e+00    
           3.61691666e-04     3.83447477e-04     0.00000000e+00    
           3.53545183e-04     3.82965954e-04     0.00000000e+00    
           3.37063655e-04     3.78631434e-04     0.00000000e+00    
           3.29915463e-04     3.74831841e-04     0.00000000e+00    
           3.23582906e-04     3.70157708e-04     0.00000000e+00    
           3.18322564e-04     3.63948639e-04     0.00000000e+00    
           3.14462814e-04     3.56544653e-04     0.00000000e+00    
           3.12311924e-04     3.48184345e-04     0.00000000e+00    
           3.12258926e-04     3.40030791e-04     0.00000000e+00    
           3.13955767e-04     3.33204633e-04     0.00000000e+00    
           3.17911734e-04     3.28019843e-04     0.00000000e+00    
           3.23820685e-04     3.24377819e-04     0.00000000e+00    
           3.31156771e-04     3.22243606e-04     0.00000000e+00    
           3.39514168e-04     3.21760977e-04     0.00000000e+00    
           4.20332275e-04     3.96976073e-04     0.00000000e+00    
           4.25772450e-04     3.99770739e-04     0.00000000e+00    
           4.30005864e-04     4.03308601e-04     0.00000000e+00    
           4.32545668e-04     4.07109183e-04     0.00000000e+00    
           4.33475041e-04     4.10908600e-04     0.00000000e+00    
           4.32865840e-04     4.14432172e-04     0.00000000e+00    
           4.31018096e-04     4.17281437e-04     0.00000000e+00    
           4.28210507e-04     4.19163815e-04     0.00000000e+00    
           4.24650003e-04     4.20024997e-04     0.00000000e+00    
           4.20869532e-04     4.19638120e-04     0.00000000e+00    
           4.11969435e-04     4.17668663e-04     0.00000000e+00    
           4.07286250e-04     4.15379822e-04     0.00000000e+00    
           4.03285376e-04     4.11964575e-04     0.00000000e+00    
           4.00403311e-04     4.07618994e-04     0.00000000e+00    
           3.98852455e-04     4.02416132e-04     0.00000000e+00    
           3.99105513e-04     3.97376105e-04     0.00000000e+00    
           4.00730059e-04     3.93909257e-04     0.00000000e+00    
           4.03590471e-04     3.92402988e-04     0.00000000e+00    
           4.06797160e-04     3.92732938e-04     0.00000000e+00    
           4.10290842e-04     3.93857947e-04     0.00000000e+00    
           1.53610192e-04     1.54205176e-04     0.00000000e+00    
           1.55644579e-04     1.55372894e-04     0.00000000e+00    
           1.57206101e-04     1.56937298e-04     0.00000000e+00    
           1.58743205e-04     1.59763731e-04     0.00000000e+00    
           1.59512405e-04     1.63129618e-04     0.00000000e+00    
           1.59049858e-04     1.65048594e-04     0.00000000e+00    
           1.58074967e-04     1.65364487e-04     0.00000000e+00    
           1.56105802e-04     1.64574813e-04     0.00000000e+00    
           1.53254470e-04     1.63154298e-04     0.00000000e+00    
           1.50431093e-04     1.61346281e-04     0.00000000e+00    
           1.47575643e-04     1.59394229e-04     0.00000000e+00    
           1.42839766e-04     1.55836853e-04     0.00000000e+00    
           1.41396595e-04     1.54619134e-04     0.00000000e+00    
           1.40678661e-04     1.53755289e-04     0.00000000e+00    
           1.39750366e-04     1.52659486e-04     0.00000000e+00    
           1.38963092e-04     1.51528118e-04     0.00000000e+00    
           1.38515330e-04     1.50540509e-04     0.00000000e+00    
           1.38988529e-04     1.49659521e-04     0.00000000e+00    
           1.40239121e-04     1.49116182e-04     0.00000000e+00    
           1.42309160e-04     1.49259402e-04     0.00000000e+00    
           1.44888938e-04     1.49886691e-04     0.00000000e+00    
           1.47776867e-04     1.51130793e-04     0.00000000e+00    
           9.45131178e-05     9.28302325e-05     0.00000000e+00    
           9.13536715e-05     8.85899135e-05     0.00000000e+00    
           8.94661862e-05     8.33356971e-05     0.00000000e+00    
           8.91300806e-05     7.73057254e-05     0.00000000e+00    
           9.05085544e-05     7.20129901e-05     0.00000000e+00    
           9.39919992e-05     6.80365119e-05     0.00000000e+00    
           9.88853062e-05     6.62098464e-05     0.00000000e+00    
           1.04115330e-04     6.65023908e-05     0.00000000e+00    
           1.09125438e-04     6.75090487e-05     0.00000000e+00    
           1.18560783e-04     7.07605286e-05     0.00000000e+00    
           1.23282851e-04     7.34726127e-05     0.00000000e+00    
           1.28019557e-04     7.77401583e-05     0.00000000e+00    
           1.31915644e-04     8.29272176e-05     0.00000000e+00    
           1.35033217e-04     8.84845867e-05     0.00000000e+00    
           1.36355011e-04     9.34083364e-05     0.00000000e+00    
           1.36130882e-04     9.72937924e-05     0.00000000e+00    
           1.34232425e-04     1.00351921e-04     0.00000000e+00    
           1.30848857e-04     1.02635269e-04     0.00000000e+00    
           1.20677396e-04     1.03971783e-04     0.00000000e+00    
           1.14683862e-04     1.02653197e-04     0.00000000e+00    
           1.08530519e-04     1.00777354e-04     0.00000000e+00    
           1.02699400e-04     9.85209626e-05     0.00000000e+00    
           2.28868375e-04     1.97877467e-04     0.00000000e+00    
           2.32373175e-04     1.99840797e-04     0.00000000e+00    
           2.35692336e-04     2.02056384e-04     0.00000000e+00    
           2.38947134e-04     2.05176155e-04     0.00000000e+00    
           2.41177899e-04     2.09045043e-04     0.00000000e+00    
           2.42056631e-04     2.13315157e-04     0.00000000e+00    
           2.41702059e-04     2.17537498e-04     0.00000000e+00    
           2.40300360e-04     2.20535163e-04     0.00000000e+00    
           2.38113062e-04     2.21974042e-04     0.00000000e+00    
           2.35064828e-04     2.22418021e-04     0.00000000e+00    
           2.30955906e-04     2.21966853e-04     0.00000000e+00    
           2.20554910e-04     2.18887770e-04     0.00000000e+00    
           2.15658307e-04     2.15499371e-04     0.00000000e+00    
           2.11438732e-04     2.11126913e-04     0.00000000e+00    
           2.08148253e-04     2.06046228e-04     0.00000000e+00    
           2.06116121e-04     2.01017276e-04     0.00000000e+00    
           2.05322445e-04     1.96947600e-04     0.00000000e+00    
           2.06025099e-04     1.94139371e-04     0.00000000e+00    
           2.08501791e-04     1.92305379e-04     0.00000000e+00    
           2.12145489e-04     1.91369647e-04     0.00000000e+00    