<?xml version="1.0"?>
<VTKFile type="UnstructuredGrid" version="0.1">
  <UnstructuredGrid>
    <Piece NumberOfPoints="1034" NumberOfCells="1614">
      <Points>
        <DataArray type="Float32" NumberOfComponents="3">
           5.21582007e-01     5.11657000e-01     0.00000000e+00    
           5.07319987e-01     5.11657000e-01     0.00000000e+00    
           4.65243995e-01     5.17907977e-01     0.00000000e+00    
           4.65243995e-01     5.04921973e-01     0.00000000e+00    
           4.75246996e-01     5.11415005e-01     0.00000000e+00    
           5.33852994e-01     5.04921973e-01     0.00000000e+00    
           5.33852994e-01     5.17907977e-01     0.00000000e+00    
           4.83779997e-01     5.34618974e-01     0.00000000e+00    
           4.68984991e-01     5.34618974e-01     0.00000000e+00    
           4.76381987e-01     5.23841977e-01     0.00000000e+00    
           4.68984991e-01     4.66010004e-01     0.00000000e+00    
           4.83779997e-01     4.66010004e-01     0.00000000e+00    
           4.99920011e-01     5.34618974e-01     0.00000000e+00    
           4.89203990e-01     5.34618974e-01     0.00000000e+00    
           4.94562000e-01     5.22280991e-01     0.00000000e+00    
           4.89203990e-01     4.66010004e-01     0.00000000e+00    
           4.99920011e-01     4.66010004e-01     0.00000000e+00    
           5.32517016e-01     4.74112004e-01     0.00000000e+00    
           5.17961025e-01     4.74112004e-01     0.00000000e+00    
           5.33852994e-01     5.19801974e-01     0.00000000e+00    
           5.33852994e-01     5.29603004e-01     0.00000000e+00    
           5.19536972e-01     5.24702013e-01     0.00000000e+00    
           4.65243995e-01     5.29603004e-01     0.00000000e+00    
           4.65243995e-01     5.19801974e-01     0.00000000e+00    
           4.92487997e-01     5.17117977e-01     0.00000000e+00    
           4.76904988e-01     5.17117977e-01     0.00000000e+00    
           5.17996013e-01     5.27033985e-01     0.00000000e+00    
           5.04473984e-01     5.27033985e-01     0.00000000e+00    
           5.08446991e-01     4.83435005e-01     0.00000000e+00    
           4.94414002e-01     4.83435005e-01     0.00000000e+00    
           4.65243995e-01     4.83101994e-01     0.00000000e+00    
           4.65243995e-01     4.74415004e-01     0.00000000e+00    
           4.78336990e-01     4.78758007e-01     0.00000000e+00    
           5.33852994e-01     4.74415004e-01     0.00000000e+00    
           5.33852994e-01     4.83101994e-01     0.00000000e+00    
           4.80668008e-01     4.95810986e-01     0.00000000e+00    
           4.66084987e-01     4.95810986e-01     0.00000000e+00    
           4.93930012e-01     4.79214013e-01     0.00000000e+00    
           4.78967011e-01     4.79214013e-01     0.00000000e+00    
           5.09284973e-01     4.97658014e-01     0.00000000e+00    
           4.95503992e-01     4.97658014e-01     0.00000000e+00    
           5.33011973e-01     5.01751006e-01     0.00000000e+00    
           5.17829001e-01     5.01751006e-01     0.00000000e+00    
           4.95451003e-01     5.00564992e-01     0.00000000e+00    
           4.80922014e-01     5.00564992e-01     0.00000000e+00    
           5.25367022e-01     4.88312006e-01     0.00000000e+00    
           5.09521008e-01     4.88312006e-01     0.00000000e+00    
           4.65243995e-01     5.34618974e-01     0.00000000e+00    
           4.65243995e-01     4.66010004e-01     0.00000000e+00    
           5.33852994e-01     4.66010004e-01     0.00000000e+00    
           5.33852994e-01     5.34618974e-01     0.00000000e+00    
           5.21338999e-01     5.13502657e-01     0.00000000e+00    
           5.20626605e-01     5.15222490e-01     0.00000000e+00    
           5.19493401e-01     5.16699374e-01     0.00000000e+00    
           5.18016517e-01     5.17832637e-01     0.00000000e+00    
           5.16296625e-01     5.18545032e-01     0.00000000e+00    
           5.14451027e-01     5.18787980e-01     0.00000000e+00    
           5.12605369e-01     5.18545032e-01     0.00000000e+00    
           5.10885477e-01     5.17832637e-01     0.00000000e+00    
           5.09408593e-01     5.16699374e-01     0.00000000e+00    
           5.08275390e-01     5.15222490e-01     0.00000000e+00    
           5.07562995e-01     5.13502657e-01     0.00000000e+00    
           5.07562995e-01     5.09811342e-01     0.00000000e+00    
           5.08275390e-01     5.08091509e-01     0.00000000e+00    
           5.09408593e-01     5.06614625e-01     0.00000000e+00    
           5.10885477e-01     5.05481362e-01     0.00000000e+00    
           5.12605369e-01     5.04768968e-01     0.00000000e+00    
           5.14451027e-01     5.04526019e-01     0.00000000e+00    
           5.16296625e-01     5.04768968e-01     0.00000000e+00    
           5.18016517e-01     5.05481362e-01     0.00000000e+00    
           5.19493401e-01     5.06614625e-01     0.00000000e+00    
           5.20626605e-01     5.08091509e-01     0.00000000e+00    
           5.21338999e-01     5.09811342e-01     0.00000000e+00    
           4.66931671e-01     5.04409373e-01     0.00000000e+00    
           4.68693614e-01     5.04328012e-01     0.00000000e+00    
           4.70421344e-01     5.04682958e-01     0.00000000e+00    
           4.72008497e-01     5.05452335e-01     0.00000000e+00    
           4.73357379e-01     5.06588817e-01     0.00000000e+00    
           4.74384934e-01     5.08022368e-01     0.00000000e+00    
           4.75027919e-01     5.09664834e-01     0.00000000e+00    
           4.75028187e-01     5.13165236e-01     0.00000000e+00    
           4.74385172e-01     5.14807761e-01     0.00000000e+00    
           4.73357558e-01     5.16241372e-01     0.00000000e+00    
           4.72008646e-01     5.17377913e-01     0.00000000e+00    
           4.70421433e-01     5.18147290e-01     0.00000000e+00    
           4.68693614e-01     5.18502235e-01     0.00000000e+00    
           4.66931641e-01     5.18420875e-01     0.00000000e+00    
           5.32303810e-01     5.16964078e-01     0.00000000e+00    
           5.31043947e-01     5.15658796e-01     0.00000000e+00    
           5.30155540e-01     5.14077127e-01     0.00000000e+00    
           5.29696345e-01     5.12322068e-01     0.00000000e+00    
           5.29696345e-01     5.10507941e-01     0.00000000e+00    
           5.30155540e-01     5.08752882e-01     0.00000000e+00    
           5.31043947e-01     5.07171214e-01     0.00000000e+00    
           5.32303810e-01     5.05865932e-01     0.00000000e+00    
           4.68517244e-01     5.32760799e-01     0.00000000e+00    
           4.68509018e-01     5.30844629e-01     0.00000000e+00    
           4.68960851e-01     5.28982460e-01     0.00000000e+00    
           4.69846308e-01     5.27283132e-01     0.00000000e+00    
           4.71113682e-01     5.25845945e-01     0.00000000e+00    
           4.72688884e-01     5.24754822e-01     0.00000000e+00    
           4.74479854e-01     5.24073541e-01     0.00000000e+00    
           4.78284091e-01     5.24073601e-01     0.00000000e+00    
           4.80075032e-01     5.24754822e-01     0.00000000e+00    
           4.81650203e-01     5.25845885e-01     0.00000000e+00    
           4.82917547e-01     5.27283013e-01     0.00000000e+00    
           4.83803004e-01     5.28982282e-01     0.00000000e+00    
           4.84254897e-01     5.30844331e-01     0.00000000e+00    
           4.84246761e-01     5.32760441e-01     0.00000000e+00    
           4.82887864e-01     4.67691004e-01     0.00000000e+00    
           4.81620818e-01     4.69110936e-01     0.00000000e+00    
           4.80051905e-01     4.70188022e-01     0.00000000e+00    
           4.78271484e-01     4.70860153e-01     0.00000000e+00    
           4.76382166e-01     4.71088618e-01     0.00000000e+00    
           4.74492878e-01     4.70860243e-01     0.00000000e+00    
           4.72712427e-01     4.70188200e-01     0.00000000e+00    
           4.71143454e-01     4.69111174e-01     0.00000000e+00    
           4.69876349e-01     4.67691302e-01     0.00000000e+00    
           4.88103986e-01     5.33086061e-01     0.00000000e+00    
           4.87431526e-01     5.31323195e-01     0.00000000e+00    
           4.87231195e-01     5.29447019e-01     0.00000000e+00    
           4.87516224e-01     5.27581930e-01     0.00000000e+00    
           4.88267750e-01     5.25851250e-01     0.00000000e+00    
           4.89436030e-01     5.24369657e-01     0.00000000e+00    
           4.90943670e-01     5.23235261e-01     0.00000000e+00    
           4.92690891e-01     5.22523046e-01     0.00000000e+00    
           4.96432930e-01     5.22523701e-01     0.00000000e+00    
           4.98180002e-01     5.23235798e-01     0.00000000e+00    
           4.99687493e-01     5.24370134e-01     0.00000000e+00    
           5.00855684e-01     5.25851607e-01     0.00000000e+00    
           5.01607120e-01     5.27582109e-01     0.00000000e+00    
           5.01892149e-01     5.29447079e-01     0.00000000e+00    
           5.01691818e-01     5.31323016e-01     0.00000000e+00    
           5.01019418e-01     5.33085763e-01     0.00000000e+00    
           4.98371124e-01     4.67269689e-01     0.00000000e+00    
           4.96539861e-01     4.68064904e-01     0.00000000e+00    
           4.94562000e-01     4.68336672e-01     0.00000000e+00    
           4.92584139e-01     4.68064904e-01     0.00000000e+00    
           4.90752876e-01     4.67269689e-01     0.00000000e+00    
           5.32269001e-01     4.75995690e-01     0.00000000e+00    
           5.31541944e-01     4.77750987e-01     0.00000000e+00    
           5.30385315e-01     4.79258329e-01     0.00000000e+00    
           5.28877974e-01     4.80414927e-01     0.00000000e+00    
[...]
      <PointData>
        <DataArray type="Float32" Name="Displacement" NumberOfComponents="3">
           5.16757755e-05     4.71667227e-05     0.00000000e+00    
           5.15228894e-05     5.84139416e-05     0.00000000e+00    
           5.38709573e-05     5.07156146e-05     0.00000000e+00    
           4.59917683e-05     4.71993917e-05     0.00000000e+00    
           5.00348178e-05     4.57051319e-05     0.00000000e+00    
           4.59917683e-05     4.71993917e-05     0.00000000e+00    
           5.38709573e-05     5.07156146e-05     0.00000000e+00    
           7.65520672e-05     6.87213178e-05     0.00000000e+00    
           7.64582364e-05     8.06103635e-05     0.00000000e+00    
           6.61377053e-05     7.26189755e-05     0.00000000e+00    
           1.45823412e-06     5.61036222e-06     0.00000000e+00    
           1.55206590e-06    -6.27868121e-06     0.00000000e+00    
           7.17422445e-05     6.52561430e-05     0.00000000e+00    
           7.19025047e-05     6.91437599e-05     0.00000000e+00    
           6.51665832e-05     6.47197739e-05     0.00000000e+00    
          -3.09749407e-06    -5.85624002e-06     0.00000000e+00    
          -3.25775181e-06    -9.74385875e-06     0.00000000e+00    
           1.49436182e-05     9.49357946e-06     0.00000000e+00    
           1.45507438e-05     2.15864766e-05     0.00000000e+00    
           6.22407533e-05     5.98332408e-05     0.00000000e+00    
           7.02324978e-05     6.27387271e-05     0.00000000e+00    
           6.67568966e-05     7.05459461e-05     0.00000000e+00    
           7.02324978e-05     6.27387271e-05     0.00000000e+00    
           6.22407533e-05     5.98332408e-05     0.00000000e+00    
           5.74001424e-05     5.37661144e-05     0.00000000e+00    
           5.67147908e-05     6.31356670e-05     0.00000000e+00    
           6.89570224e-05     6.58602003e-05     0.00000000e+00    
           6.93382826e-05     7.01516910e-05     0.00000000e+00    
           2.62431895e-05     2.66266725e-05     0.00000000e+00    
           2.49448367e-05     2.60194283e-05     0.00000000e+00    
           2.18926707e-05     1.78766259e-05     0.00000000e+00    
           1.64601497e-05     1.62005508e-05     0.00000000e+00    
           1.94304175e-05     1.11237732e-05     0.00000000e+00    
           1.64601497e-05     1.62005508e-05     0.00000000e+00    
           2.18926707e-05     1.78766259e-05     0.00000000e+00    
           3.71450333e-05     3.22029300e-05     0.00000000e+00    
           3.74554293e-05     3.62214050e-05     0.00000000e+00    
           2.17792021e-05     1.48597801e-05     0.00000000e+00    
           2.05888955e-05     1.43790585e-05     0.00000000e+00    
           3.65153428e-05     3.19469000e-05     0.00000000e+00    
           3.66973036e-05     3.72965951e-05     0.00000000e+00    
           4.26045590e-05     4.02135520e-05     0.00000000e+00    
           4.23561432e-05     4.48854371e-05     0.00000000e+00    
           3.79186931e-05     3.73804251e-05     0.00000000e+00    
           3.81188984e-05     4.22645026e-05     0.00000000e+00    
           3.29398936e-05     3.01872642e-05     0.00000000e+00    
           3.25759829e-05     3.65767737e-05     0.00000000e+00    
           7.50000036e-05     7.50000036e-05     0.00000000e+00    
           0.00000000e+00     0.00000000e+00     0.00000000e+00    
           0.00000000e+00     0.00000000e+00     0.00000000e+00    
           7.50000036e-05     7.50000036e-05     0.00000000e+00    
           5.35692088e-05     4.79606751e-05     0.00000000e+00    
           5.53317623e-05     4.90382081e-05     0.00000000e+00    
           5.67626957e-05     5.02880321e-05     0.00000000e+00    
           5.77610954e-05     5.15802349e-05     0.00000000e+00    
           5.83212859e-05     5.31154983e-05     0.00000000e+00    
           5.84783884e-05     5.47691998e-05     0.00000000e+00    
           5.82245630e-05     5.62527894e-05     0.00000000e+00    
           5.75154336e-05     5.73310826e-05     0.00000000e+00    
           5.63765352e-05     5.80796695e-05     0.00000000e+00    
           5.49356082e-05     5.84938243e-05     0.00000000e+00    
           5.32954655e-05     5.86344286e-05     0.00000000e+00    
           4.97252149e-05     5.77727042e-05     0.00000000e+00    
           4.80498020e-05     5.68541473e-05     0.00000000e+00    
           4.66321362e-05     5.57269559e-05     0.00000000e+00    
           4.55718655e-05     5.45390139e-05     0.00000000e+00    
           4.49584877e-05     5.32375088e-05     0.00000000e+00    
           4.47708953e-05     5.18491070e-05     0.00000000e+00    
           4.49442414e-05     5.03722440e-05     0.00000000e+00    
           4.54861038e-05     4.88193400e-05     0.00000000e+00    
           4.64453769e-05     4.73300133e-05     0.00000000e+00    
           4.78240727e-05     4.68337457e-05     0.00000000e+00    
           4.96699686e-05     4.68041835e-05     0.00000000e+00    
           4.59898729e-05     4.68844410e-05     0.00000000e+00    
           4.60022056e-05     4.63066317e-05     0.00000000e+00    
           4.61797281e-05     4.56608650e-05     0.00000000e+00    
           4.66159363e-05     4.52555105e-05     0.00000000e+00    
           4.72619213e-05     4.51366250e-05     0.00000000e+00    
           4.80883136e-05     4.51540218e-05     0.00000000e+00    
           4.90152379e-05     4.53828325e-05     0.00000000e+00    
           5.09888014e-05     4.61149793e-05     0.00000000e+00    
           5.18059969e-05     4.65068588e-05     0.00000000e+00    
           5.25376126e-05     4.70013874e-05     0.00000000e+00    
           5.31556834e-05     4.75933266e-05     0.00000000e+00    
           5.36571170e-05     4.82708165e-05     0.00000000e+00    
           5.39822468e-05     4.89588056e-05     0.00000000e+00    
           5.40335241e-05     4.97721194e-05     0.00000000e+00    
           5.32328486e-05     5.15045685e-05     0.00000000e+00    
           5.22291157e-05     5.17389999e-05     0.00000000e+00    
           5.10527789e-05     5.14757812e-05     0.00000000e+00    
           4.97987276e-05     5.09946258e-05     0.00000000e+00    
           4.85169148e-05     5.01687391e-05     0.00000000e+00    
           4.72216270e-05     4.90290331e-05     0.00000000e+00    
           4.61086202e-05     4.76195564e-05     0.00000000e+00    
           4.59280345e-05     4.71633466e-05     0.00000000e+00    
           7.45259676e-05     8.04169686e-05     0.00000000e+00    
           7.26559956e-05     7.99053887e-05     0.00000000e+00    
           7.09450396e-05     7.91688726e-05     0.00000000e+00    
           6.94411938e-05     7.82264033e-05     0.00000000e+00    
           6.81487872e-05     7.70286133e-05     0.00000000e+00    
           6.71023154e-05     7.56477530e-05     0.00000000e+00    
           6.63881874e-05     7.41616532e-05     0.00000000e+00    
           6.63471437e-05     7.09866654e-05     0.00000000e+00    
           6.69779620e-05     6.95021808e-05     0.00000000e+00    
           6.79602090e-05     6.84151019e-05     0.00000000e+00    
           6.92780741e-05     6.77201970e-05     0.00000000e+00    
           7.07971776e-05     6.74135226e-05     0.00000000e+00    
           7.25261852e-05     6.74626936e-05     0.00000000e+00    
           7.44844874e-05     6.78596698e-05     0.00000000e+00    
           3.51843119e-06    -5.05416892e-06     0.00000000e+00    
           5.15783495e-06    -3.56998589e-06     0.00000000e+00    
           6.31590319e-06    -2.03700256e-06     0.00000000e+00    
           6.93305310e-06    -5.33431603e-07     0.00000000e+00    
           7.04382501e-06     1.17171442e-06     0.00000000e+00    
           6.77219805e-06     2.83455233e-06     0.00000000e+00    
           6.00097883e-06     4.13621547e-06     0.00000000e+00    
           4.76257264e-06     4.95368204e-06     0.00000000e+00    
           3.19813944e-06     5.42875523e-06     0.00000000e+00    
           7.11026514e-05     6.91952009e-05     0.00000000e+00    
           7.01692843e-05     6.90224915e-05     0.00000000e+00    
           6.90563320e-05     6.86331041e-05     0.00000000e+00    
           6.77579374e-05     6.79374862e-05     0.00000000e+00    
           6.64412073e-05     6.69143992e-05     0.00000000e+00    
           6.53982715e-05     6.57515629e-05     0.00000000e+00    
           6.49458671e-05     6.50226939e-05     0.00000000e+00    
           6.49632275e-05     6.48392743e-05     0.00000000e+00    
           6.54285977e-05     6.44631364e-05     0.00000000e+00    
           6.58222198e-05     6.41775332e-05     0.00000000e+00    
           6.63891842e-05     6.39562422e-05     0.00000000e+00    
           6.70665468e-05     6.38147758e-05     0.00000000e+00    
           6.78445067e-05     6.37875346e-05     0.00000000e+00    
           6.87618085e-05     6.38793135e-05     0.00000000e+00    
           6.97690048e-05     6.41512524e-05     0.00000000e+00    
           7.08004154e-05     6.45975306e-05     0.00000000e+00    
          -2.48907668e-06    -8.95924586e-06     0.00000000e+00    
          -1.97534291e-06    -8.14904433e-06     0.00000000e+00    
          -1.77064169e-06    -7.40542919e-06     0.00000000e+00    
          -1.93155006e-06    -6.70686040e-06     0.00000000e+00    
          -2.40209806e-06    -6.16649777e-06     0.00000000e+00    
           1.67217349e-05     1.00967973e-05     0.00000000e+00    
           1.81359010e-05     1.07476171e-05     0.00000000e+00    
           1.94148124e-05     1.15875864e-05     0.00000000e+00    
           2.06066779e-05     1.28905513e-05     0.00000000e+00    
           2.14898628e-05     1.45878194e-05     0.00000000e+00    
           2.18964797e-05     1.65345264e-05     0.00000000e+00    
           2.19212670e-05     1.87876794e-05     0.00000000e+00    
           2.12327450e-05     2.05370507e-05     0.00000000e+00    
           1.99875158e-05     2.15679520e-05     0.00000000e+00    
           1.83501070e-05     2.19766989e-05     0.00000000e+00    
           1.64756511e-05     2.20004567e-05     0.00000000e+00    
           1.25952565e-05     2.08438469e-05     0.00000000e+00    
           1.08068652e-05     1.97187564e-05     0.00000000e+00    
           9.29885664e-06     1.83160555e-05     0.00000000e+00    
           8.19261641e-06     1.66544814e-05     0.00000000e+00    
           7.54025086e-06     1.47786996e-05     0.00000000e+00    
           7.35896310e-06     1.28625124e-05     0.00000000e+00    
           7.66180437e-06     1.12712260e-05     0.00000000e+00    
           8.42125792e-06     1.01365540e-05     0.00000000e+00    
           9.64906485e-06     9.45263582e-06     0.00000000e+00    
           1.12040807e-05     9.10224298e-06     0.00000000e+00    
           1.30319968e-05     9.07896356e-06     0.00000000e+00    
           7.12327019e-05     6.39023201e-05     0.00000000e+00    
           7.19718955e-05     6.53362149e-05     0.00000000e+00    
           7.23906342e-05     6.69793953e-05     0.00000000e+00    
           7.24582278e-05     6.85575433e-05     0.00000000e+00    
           7.21588003e-05     6.97500509e-05     0.00000000e+00    
           7.14233756e-05     7.04835984e-05     0.00000000e+00    
           7.04531631e-05     7.07783547e-05     0.00000000e+00    
           6.93800321e-05     7.08732914e-05     0.00000000e+00    
           6.82038735e-05     7.07859581e-05     0.00000000e+00    
           6.50384027e-05     7.00088640e-05     0.00000000e+00    
           6.32857336e-05     6.91763198e-05     0.00000000e+00    
           6.18075865e-05     6.81107922e-05     0.00000000e+00    
           6.07185102e-05     6.70204026e-05     0.00000000e+00    
           6.00398016e-05     6.58380304e-05     0.00000000e+00    
           5.96696809e-05     6.45473046e-05     0.00000000e+00    
           5.96622849e-05     6.31136500e-05     0.00000000e+00    
           5.99874984e-05     6.15207609e-05     0.00000000e+00    
           6.08761766e-05     6.03745175e-05     0.00000000e+00    
           6.36759360e-05     5.98029656e-05     0.00000000e+00    
           6.51531882e-05     6.00373023e-05     0.00000000e+00    
           6.66114647e-05     6.05048808e-05     0.00000000e+00    
           6.79548903e-05     6.12069562e-05     0.00000000e+00    
           6.91628593e-05     6.19351340e-05     0.00000000e+00    
           5.90234995e-05     5.44780742e-05     0.00000000e+00    
           6.06476533e-05     5.56247396e-05     0.00000000e+00    
           6.21341314e-05     5.69587246e-05     0.00000000e+00    
           6.30353970e-05     5.81488493e-05     0.00000000e+00    
           6.33990203e-05     5.89000483e-05     0.00000000e+00    
           6.34168609e-05     5.95802667e-05     0.00000000e+00    
           6.33119707e-05     6.06219583e-05     0.00000000e+00    
           6.29079004e-05     6.18613340e-05     0.00000000e+00    
           6.21334621e-05     6.28649650e-05     0.00000000e+00    
           6.10256830e-05     6.34919706e-05     0.00000000e+00    
           5.96334903e-05     6.36946133e-05     0.00000000e+00    
           5.81943568e-05     6.34834723e-05     0.00000000e+00    
           5.53199970e-05     6.25539324e-05     0.00000000e+00    
           5.41648442e-05     6.19108250e-05     0.00000000e+00    
           5.31428013e-05     6.12012154e-05     0.00000000e+00    
           5.22379487e-05     6.01817410e-05     0.00000000e+00    
           5.15495049e-05     5.89201481e-05     0.00000000e+00    
           5.11297876e-05     5.74223377e-05     0.00000000e+00    
           5.10849568e-05     5.59153887e-05     0.00000000e+00    
           5.14013482e-05     5.48023490e-05     0.00000000e+00    
           5.21058355e-05     5.41068584e-05     0.00000000e+00    
           5.31387414e-05     5.36778534e-05     0.00000000e+00    
           5.43911337e-05     5.34464052e-05     0.00000000e+00    
           5.58462452e-05     5.34489482e-05     0.00000000e+00    
           7.00023229e-05     6.62668754e-05     0.00000000e+00    
           7.10534441e-05     6.68596695e-05     0.00000000e+00    
           7.18570809e-05     6.75533083e-05     0.00000000e+00    
           7.23171470e-05     6.82397149e-05     0.00000000e+00    
           7.24735073e-05     6.88983491e-05     0.00000000e+00    
           7.23446792e-05     6.94905611e-05     0.00000000e+00    
           7.19928212e-05     6.99529701e-05     0.00000000e+00    
           7.14742346e-05     7.02386969e-05     0.00000000e+00    
           7.08188745e-05     7.03553887e-05     0.00000000e+00    
           7.01227764e-05     7.02687175e-05     0.00000000e+00    
           6.84782572e-05     6.99210359e-05     0.00000000e+00    
           6.75938500e-05     6.95020353e-05     0.00000000e+00    
           6.68212087e-05     6.88631480e-05     0.00000000e+00    
           6.62423408e-05     6.80353696e-05     0.00000000e+00    
           6.59025027e-05     6.69960500e-05     0.00000000e+00    
           6.59172001e-05     6.59496873e-05     0.00000000e+00    
           6.62351595e-05     6.52960880e-05     0.00000000e+00    
           6.67829954e-05     6.51229348e-05     0.00000000e+00    
           6.73826216e-05     6.53034294e-05     0.00000000e+00    
           6.80528537e-05     6.55705953e-05     0.00000000e+00    
           2.67644591e-05     2.69331358e-05     0.00000000e+00    
           2.70180717e-05     2.70305645e-05     0.00000000e+00    
           2.72235011e-05     2.71480494e-05     0.00000000e+00    
           2.75339917e-05     2.75738057e-05     0.00000000e+00    
           2.78208590e-05     2.83942991e-05     0.00000000e+00    
           2.77377603e-05     2.89265936e-05     0.00000000e+00    
           2.73673249e-05     2.86054437e-05     0.00000000e+00    
           2.68697477e-05     2.80877994e-05     0.00000000e+00    
           2.63718412e-05     2.75710190e-05     0.00000000e+00    
           2.58956152e-05     2.70638557e-05     0.00000000e+00    
           2.54039769e-05     2.65705185e-05     0.00000000e+00    
           2.46118307e-05     2.56624298e-05     0.00000000e+00    
           2.45381289e-05     2.55352552e-05     0.00000000e+00    
           2.45601368e-05     2.55444556e-05     0.00000000e+00    
           2.44384846e-05     2.54751994e-05     0.00000000e+00    
           2.43095001e-05     2.54068163e-05     0.00000000e+00    
           2.42277274e-05     2.53955350e-05     0.00000000e+00    
           2.43117047e-05     2.54173119e-05     0.00000000e+00    
           2.45287611e-05     2.55066607e-05     0.00000000e+00    
           2.48689521e-05     2.57130032e-05     0.00000000e+00    
           2.52835871e-05     2.59590579e-05     0.00000000e+00    
           2.57668107e-05     2.62802296e-05     0.00000000e+00    
           1.57678860e-05     1.56807873e-05     0.00000000e+00    
           1.51014592e-05     1.49120442e-05     0.00000000e+00    
           1.46782086e-05     1.39148060e-05     0.00000000e+00    
           1.45381782e-05     1.26939558e-05     0.00000000e+00    
           1.47750161e-05     1.15649045e-05     0.00000000e+00    
           1.54879963e-05     1.07935712e-05     0.00000000e+00    
           1.64588146e-05     1.05273884e-05     0.00000000e+00    
           1.74922116e-05     1.06361422e-05     0.00000000e+00    
           1.84874461e-05     1.08406084e-05     0.00000000e+00    
           2.03234649e-05     1.14831946e-05     0.00000000e+00    
           2.12668674e-05     1.20405130e-05     0.00000000e+00    
           2.22294075e-05     1.29414075e-05     0.00000000e+00    
           2.30328460e-05     1.40649108e-05     0.00000000e+00    
           2.36831838e-05     1.52911471e-05     0.00000000e+00    
           2.39367164e-05     1.62917568e-05     0.00000000e+00    
           2.38545999e-05     1.69396717e-05     0.00000000e+00    
           2.34381932e-05     1.73796197e-05     0.00000000e+00    
           2.27720502e-05     1.77045076e-05     0.00000000e+00    
           2.08423317e-05     1.78528680e-05     0.00000000e+00    
           1.96664914e-05     1.75517325e-05     0.00000000e+00    
           1.84416240e-05     1.70781132e-05     0.00000000e+00    
           1.73194694e-05     1.65612273e-05     0.00000000e+00    
           3.77552278e-05     3.27265334e-05     0.00000000e+00    
           3.82864855e-05     3.30004696e-05     0.00000000e+00    
           3.88573571e-05     3.32934906e-05     0.00000000e+00    
           3.94589333e-05     3.37769779e-05     0.00000000e+00    
           3.98853590e-05     3.43944739e-05     0.00000000e+00    
           4.00811696e-05     3.50971859e-05     0.00000000e+00    
           4.00663594e-05     3.58305660e-05     0.00000000e+00    
           3.98502161e-05     3.63002800e-05     0.00000000e+00    
           3.94841991e-05     3.64679436e-05     0.00000000e+00    
           3.89774032e-05     3.65112537e-05     0.00000000e+00    
           3.83007246e-05     3.64223379e-05     0.00000000e+00    
           3.65323795e-05     3.58217148e-05     0.00000000e+00    
           3.56532473e-05     3.51595518e-05     0.00000000e+00    
           3.48583053e-05     3.42971143e-05     0.00000000e+00    
           3.42171297e-05     3.32531599e-05     0.00000000e+00    
           3.38120808e-05     3.22019223e-05     0.00000000e+00    
           3.36681442e-05     3.14716963e-05     0.00000000e+00    
           3.38563150e-05     3.11394579e-05     0.00000000e+00    
           3.43378269e-05     3.10527103e-05     0.00000000e+00    
           3.49705515e-05     3.10840005e-05     0.00000000e+00    