<?xml version="1.0"?>
<VTKFile type="UnstructuredGrid" version="0.1">
  <UnstructuredGrid>
    <Piece NumberOfPoints="1034" NumberOfCells="1614">
      <Points>
        <DataArray type="Float32" NumberOfComponents="3">
           5.21582007e-01     5.11657000e-01     0.00000000e+00    
           5.07319987e-01     5.11657000e-01     0.00000000e+00    
           4.65243995e-01     5.17907977e-01     0.00000000e+00    
           4.65243995e-01     5.04921973e-01     0.00000000e+00    
           4.75246996e-01     5.11415005e-01     0.00000000e+00    
           5.33852994e-01     5.04921973e-01     0.00000000e+00    
           5.33852994e-01     5.17907977e-01     0.00000000e+00    
           4.83779997e-01     5.34618974e-01     0.00000000e+00    
           4.68984991e-01     5.34618974e-01     0.00000000e+00    
           4.76381987e-01     5.23841977e-01     0.00000000e+00    
           4.68984991e-01     4.66010004e-01     0.00000000e+00    
           4.83779997e-01     4.66010004e-01     0.00000000e+00    
           4.99920011e-01     5.34618974e-01     0.00000000e+00    
           4.89203990e-01     5.34618974e-01     0.00000000e+00    
           4.94562000e-01     5.22280991e-01     0.00000000e+00    
           4.89203990e-01     4.66010004e-01     0.00000000e+00    
           4.99920011e-01     4.66010004e-01     0.00000000e+00    
           5.32517016e-01     4.74112004e-01     0.00000000e+00    
           5.17961025e-01     4.74112004e-01     0.00000000e+00    
           5.33852994e-01     5.19801974e-01     0.00000000e+00    
           5.33852994e-01     5.29603004e-01     0.00000000e+00    
           5.19536972e-01     5.24702013e-01     0.00000000e+00    
           4.65243995e-01     5.29603004e-01     0.00000000e+00    
           4.65243995e-01     5.19801974e-01     0.00000000e+00    
           4.92487997e-01     5.17117977e-01     0.00000000e+00    
           4.76904988e-01     5.17117977e-01     0.00000000e+00    
           5.17996013e-01     5.27033985e-01     0.00000000e+00    
           5.04473984e-01     5.27033985e-01     0.00000000e+00    
           5.08446991e-01     4.83435005e-01     0.00000000e+00    
           4.94414002e-01     4.83435005e-01     0.00000000e+00    
           4.65243995e-01     4.83101994e-01     0.00000000e+00    
           4.65243995e-01     4.74415004e-01     0.00000000e+00    
           4.78336990e-01     4.78758007e-01     0.00000000e+00    
           5.33852994e-01     4.74415004e-01     0.00000000e+00    
           5.33852994e-01     4.83101994e-01     0.00000000e+00    
           4.80668008e-01     4.95810986e-01     0.00000000e+00    
           4.66084987e-01     4.95810986e-01     0.00000000e+00    
           4.93930012e-01     4.79214013e-01     0.00000000e+00    
           4.78967011e-01     4.79214013e-01     0.00000000e+00    
           5.09284973e-01     4.97658014e-01     0.00000000e+00    
           4.95503992e-01     4.97658014e-01     0.00000000e+00    
           5.33011973e-01     5.01751006e-01     0.00000000e+00    
           5.17829001e-01     5.01751006e-01     0.00000000e+00    
           4.95451003e-01     5.00564992e-01     0.00000000e+00    
           4.80922014e-01     5.00564992e-01     0.00000000e+00    
           5.25367022e-01     4.88312006e-01     0.00000000e+00    
           5.09521008e-01     4.88312006e-01     0.00000000e+00    
           4.65243995e-01     5.34618974e-01     0.00000000e+00    
           4.65243995e-01     4.66010004e-01     0.00000000e+00    
           5.33852994e-01     4.66010004e-01     0.00000000e+00    
           5.33852994e-01     5.34618974e-01     0.00000000e+00    
           5.21338999e-01     5.13502657e-01     0.00000000e+00    
           5.20626605e-01     5.15222490e-01     0.00000000e+00    
           5.19493401e-01     5.16699374e-01     0.00000000e+00    
           5.18016517e-01     5.17832637e-01     0.00000000e+00    
           5.16296625e-01     5.18545032e-01     0.00000000e+00    
           5.14451027e-01     5.18787980e-01     0.00000000e+00    
           5.12605369e-01     5.18545032e-01     0.00000000e+00    
           5.10885477e-01     5.17832637e-01     0.00000000e+00    
           5.09408593e-01     5.16699374e-01     0.00000000e+00    
           5.08275390e-01     5.15222490e-01     0.00000000e+00    
           5.07562995e-01     5.13502657e-01     0.00000000e+00    
           5.07562995e-01     5.09811342e-01     0.00000000e+00    
           5.08275390e-01     5.08091509e-01     0.00000000e+00    
           5.09408593e-01     5.06614625e-01     0.00000000e+00    
           5.10885477e-01     5.05481362e-01     0.00000000e+00    
           5.12605369e-01     5.04768968e-01     0.00000000e+00    
           5.14451027e-01     5.04526019e-01     0.00000000e+00    
           5.16296625e-01     5.04768968e-01     0.00000000e+00    
           5.18016517e-01     5.05481362e-01     0.00000000e+00    
           5.19493401e-01     5.06614625e-01     0.00000000e+00    
           5.20626605e-01     5.08091509e-01     0.00000000e+00    
           5.21338999e-01     5.09811342e-01     0.00000000e+00    
           4.66931671e-01     5.04409373e-01     0.00000000e+00    
           4.68693614e-01     5.04328012e-01     0.00000000e+00    
           4.70421344e-01     5.04682958e-01     0.00000000e+00    
           4.72008497e-01     5.05452335e-01     0.00000000e+00    
           4.73357379e-01     5.06588817e-01     0.00000000e+00    
           4.74384934e-01     5.08022368e-01     0.00000000e+00    
           4.75027919e-01     5.09664834e-01     0.00000000e+00    
           4.75028187e-01     5.13165236e-01     0.00000000e+00    
           4.74385172e-01     5.14807761e-01     0.00000000e+00    
           4.73357558e-01     5.16241372e-01     0.00000000e+00    
           4.72008646e-01     5.17377913e-01     0.00000000e+00    
           4.70421433e-01     5.18147290e-01     0.00000000e+00    
           4.68693614e-01     5.18502235e-01     0.00000000e+00    
           4.66931641e-01     5.18420875e-01     0.00000000e+00    
           5.32303810e-01     5.16964078e-01     0.00000000e+00    
           5.31043947e-01     5.15658796e-01     0.00000000e+00    
           5.30155540e-01     5.14077127e-01     0.00000000e+00    
           5.29696345e-01     5.12322068e-01     0.00000000e+00    
           5.29696345e-01     5.10507941e-01     0.00000000e+00    
           5.30155540e-01     5.08752882e-01     0.00000000e+00    
           5.31043947e-01     5.07171214e-01     0.00000000e+00    
           5.32303810e-01     5.05865932e-01     0.00000000e+00    
           4.68517244e-01     5.32760799e-01     0.00000000e+00    
           4.68509018e-01     5.30844629e-01     0.00000000e+00    
           4.68960851e-01     5.28982460e-01     0.00000000e+00    
           4.69846308e-01     5.27283132e-01     0.00000000e+00    
           4.71113682e-01     5.25845945e-01     0.00000000e+00    
           4.72688884e-01     5.24754822e-01     0.00000000e+00    
           4.74479854e-01     5.24073541e-01     0.00000000e+00    
           4.78284091e-01     5.24073601e-01     0.00000000e+00    
           4.80075032e-01     5.24754822e-01     0.00000000e+00    
           4.81650203e-01     5.25845885e-01     0.00000000e+00    
           4.82917547e-01     5.27283013e-01     0.00000000e+00    
           4.83803004e-01     5.28982282e-01     0.00000000e+00    
           4.84254897e-01     5.30844331e-01     0.00000000e+00    
           4.84246761e-01     5.32760441e-01     0.00000000e+00    
           4.82887864e-01     4.67691004e-01     0.00000000e+00    
           4.81620818e-01     4.69110936e-01     0.00000000e+00    
           4.80051905e-01     4.70188022e-01     0.00000000e+00    
           4.78271484e-01     4.70860153e-01     0.00000000e+00    
           4.76382166e-01     4.71088618e-01     0.00000000e+00    
           4.74492878e-01     4.70860243e-01     0.00000000e+00    
           4.72712427e-01     4.70188200e-01     0.00000000e+00    
           4.71143454e-01     4.69111174e-01     0.00000000e+00    
           4.69876349e-01     4.67691302e-01     0.00000000e+00    
           4.88103986e-01     5.33086061e-01     0.00000000e+00    
           4.87431526e-01     5.31323195e-01     0.00000000e+00    
           4.87231195e-01     5.29447019e-01     0.00000000e+00    
           4.87516224e-01     5.27581930e-01     0.00000000e+00    
           4.88267750e-01     5.25851250e-01     0.00000000e+00    
           4.89436030e-01     5.24369657e-01     0.00000000e+00    
           4.90943670e-01     5.23235261e-01     0.00000000e+00    
           4.92690891e-01     5.22523046e-01     0.00000000e+00    
           4.96432930e-01     5.22523701e-01     0.00000000e+00    
           4.98180002e-01     5.23235798e-01     0.00000000e+00    
           4.99687493e-01     5.24370134e-01     0.00000000e+00    
           5.00855684e-01     5.25851607e-01     0.00000000e+00    
           5.01607120e-01     5.27582109e-01     0.00000000e+00    
           5.01892149e-01     5.29447079e-01     0.00000000e+00    
           5.01691818e-01     5.31323016e-01     0.00000000e+00    
           5.01019418e-01     5.33085763e-01     0.00000000e+00    
           4.98371124e-01     4.67269689e-01     0.00000000e+00    
           4.96539861e-01     4.68064904e-01     0.00000000e+00    
           4.94562000e-01     4.68336672e-01     0.00000000e+00    
           4.92584139e-01     4.68064904e-01     0.00000000e+00    
           4.90752876e-01     4.67269689e-01     0.00000000e+00    
           5.32269001e-01     4.75995690e-01     0.00000000e+00    
           5.31541944e-01     4.77750987e-01     0.00000000e+00    
           5.30385315e-01     4.79258329e-01     0.00000000e+00    
           5.28877974e-01     4.80414927e-01     0.00000000e+00    
[...]
      <PointData>
        <DataArray type="Float32" Name="Displacement" NumberOfComponents="3">
           2.79178872e-04     2.54483428e-04     0.00000000e+00    
           2.77908170e-04     3.12851218e-04     0.00000000e+00    
           2.95784528e-04     2.75975442e-04     0.00000000e+00    
           2.48041179e-04     2.62006157e-04     0.00000000e+00    
           2.73253885e-04     2.43998948e-04     0.00000000e+00    
           2.48041179e-04     2.62006157e-04     0.00000000e+00    
           2.95784528e-04     2.75975442e-04     0.00000000e+00    
           4.06315667e-04     3.66625085e-04     0.00000000e+00    
           4.06129489e-04     4.27419553e-04     0.00000000e+00    
           3.55146942e-04     3.87962791e-04     0.00000000e+00    
           6.12949998e-06     2.74195554e-05     0.00000000e+00    
           6.31567673e-06    -3.33749267e-05     0.00000000e+00    
           3.83640698e-04     3.51661351e-04     0.00000000e+00    
           3.84108309e-04     3.73227289e-04     0.00000000e+00    
           3.49977636e-04     3.51620576e-04     0.00000000e+00    
          -1.58916919e-05    -2.67727246e-05     0.00000000e+00    
          -1.63593031e-05    -4.83386611e-05     0.00000000e+00    
           7.91108832e-05     4.73732944e-05     0.00000000e+00    
           7.66860539e-05     1.04306746e-04     0.00000000e+00    
           3.38500016e-04     3.22888023e-04     0.00000000e+00    
           3.75693577e-04     3.34671029e-04     0.00000000e+00    
           3.58772115e-04     3.72565177e-04     0.00000000e+00    
           3.75693577e-04     3.34671029e-04     0.00000000e+00    
           3.38500016e-04     3.22888023e-04     0.00000000e+00    
           3.09148018e-04     2.87044677e-04     0.00000000e+00    
           3.06179427e-04     3.38646991e-04     0.00000000e+00    
           3.68573295e-04     3.50789633e-04     0.00000000e+00    
           3.70064692e-04     3.71810456e-04     0.00000000e+00    
           1.35054695e-04     1.36651171e-04     0.00000000e+00    
           1.29918189e-04     1.39944517e-04     0.00000000e+00    
           1.13215407e-04     9.25864151e-05     0.00000000e+00    
           8.74927864e-05     8.52814264e-05     0.00000000e+00    
           1.01954618e-04     6.06383073e-05     0.00000000e+00    
           8.74927864e-05     8.52814264e-05     0.00000000e+00    
           1.13215407e-04     9.25864151e-05     0.00000000e+00    
           1.99979637e-04     1.73211432e-04     0.00000000e+00    
           2.00762312e-04     1.95396002e-04     0.00000000e+00    
           1.12538044e-04     7.66946614e-05     0.00000000e+00    
           1.07705775e-04     7.88659236e-05     0.00000000e+00    
           1.99035218e-04     1.70832514e-04     0.00000000e+00    
           1.99319678e-04     2.00416078e-04     0.00000000e+00    
           2.29676996e-04     2.07893609e-04     0.00000000e+00    
           2.27852724e-04     2.48382712e-04     0.00000000e+00    
           2.05212680e-04     2.00543684e-04     0.00000000e+00    
           2.05617645e-04     2.24868447e-04     0.00000000e+00    
           1.70550309e-04     1.42511999e-04     0.00000000e+00    
           1.68209473e-04     1.84496326e-04     0.00000000e+00    
           3.99999990e-04     3.99999990e-04     0.00000000e+00    
           0.00000000e+00     0.00000000e+00     0.00000000e+00    
           0.00000000e+00     0.00000000e+00     0.00000000e+00    
           3.99999990e-04     3.99999990e-04     0.00000000e+00    
           2.88507203e-04     2.57884822e-04     0.00000000e+00    
           2.97271094e-04     2.62729620e-04     0.00000000e+00    
           3.04488640e-04     2.68832198e-04     0.00000000e+00    
           3.09606839e-04     2.75689148e-04     0.00000000e+00    
           3.12443706e-04     2.83630099e-04     0.00000000e+00    
           3.13133729e-04     2.91955686e-04     0.00000000e+00    
           3.11808020e-04     2.99552135e-04     0.00000000e+00    
           3.08271643e-04     3.05589288e-04     0.00000000e+00    
           3.02472065e-04     3.10041447e-04     0.00000000e+00    
           2.95109290e-04     3.12622869e-04     0.00000000e+00    
           2.86792289e-04     3.13659693e-04     0.00000000e+00    
           2.68984528e-04     3.10019735e-04     0.00000000e+00    
           2.60599365e-04     3.05754336e-04     0.00000000e+00    
           2.53441598e-04     3.00139189e-04     0.00000000e+00    
           2.48026859e-04     2.93782185e-04     0.00000000e+00    
           2.44845782e-04     2.86766910e-04     0.00000000e+00    
           2.43883856e-04     2.79494561e-04     0.00000000e+00    
           2.44865369e-04     2.72145175e-04     0.00000000e+00    
           2.47793621e-04     2.64741742e-04     0.00000000e+00    
           2.52923055e-04     2.58028624e-04     0.00000000e+00    
           2.59936845e-04     2.54388491e-04     0.00000000e+00    
           2.69180076e-04     2.53343809e-04     0.00000000e+00    
           2.47627817e-04     2.58000800e-04     0.00000000e+00    
           2.47990043e-04     2.53324921e-04     0.00000000e+00    
           2.49360019e-04     2.48701224e-04     0.00000000e+00    
           2.52190861e-04     2.45235395e-04     0.00000000e+00    
           2.56333937e-04     2.43265618e-04     0.00000000e+00    
           2.61511275e-04     2.42358874e-04     0.00000000e+00    
           2.67215044e-04     2.42826791e-04     0.00000000e+00    
           2.79022061e-04     2.45961011e-04     0.00000000e+00    
           2.84253911e-04     2.48436321e-04     0.00000000e+00    
           2.88850220e-04     2.51751277e-04     0.00000000e+00    
           2.92601879e-04     2.55761290e-04     0.00000000e+00    
           2.95436854e-04     2.60373170e-04     0.00000000e+00    
           2.97097053e-04     2.65220879e-04     0.00000000e+00    
           2.97078717e-04     2.70562246e-04     0.00000000e+00    
           2.92276818e-04     2.80581269e-04     0.00000000e+00    
           2.86778697e-04     2.83170608e-04     0.00000000e+00    
           2.80136330e-04     2.83404399e-04     0.00000000e+00    
           2.73069105e-04     2.82155641e-04     0.00000000e+00    
           2.66174175e-04     2.79038679e-04     0.00000000e+00    
           2.59297871e-04     2.74923834e-04     0.00000000e+00    
           2.53395585e-04     2.70563090e-04     0.00000000e+00    
           2.49781093e-04     2.65832845e-04     0.00000000e+00    
           3.96652351e-04     4.26891143e-04     0.00000000e+00    
           3.87478183e-04     4.24820348e-04     0.00000000e+00    
           3.78941739e-04     4.21430799e-04     0.00000000e+00    
           3.71339469e-04     4.16736788e-04     0.00000000e+00    
           3.64902371e-04     4.10734385e-04     0.00000000e+00    
           3.59771744e-04     4.03746817e-04     0.00000000e+00    
           3.56320495e-04     3.96063115e-04     0.00000000e+00    
           3.56307370e-04     3.79572040e-04     0.00000000e+00    
           3.59545229e-04     3.72026319e-04     0.00000000e+00    
           3.64503590e-04     3.66278226e-04     0.00000000e+00    
           3.71127651e-04     3.62461054e-04     0.00000000e+00    
           3.78635421e-04     3.60766106e-04     0.00000000e+00    
           3.87023203e-04     3.60977079e-04     0.00000000e+00    
           3.96457268e-04     3.62766121e-04     0.00000000e+00    
           1.57013910e-05    -2.78592870e-05     0.00000000e+00    
           2.35803946e-05    -2.09334958e-05     0.00000000e+00    
           2.92903205e-05    -1.33020294e-05     0.00000000e+00    
           3.25032706e-05    -5.38566655e-06     0.00000000e+00    
           3.31511292e-05     3.28467672e-06     0.00000000e+00    
           3.18431084e-05     1.14929044e-05     0.00000000e+00    
           2.82397650e-05     1.82791900e-05     0.00000000e+00    
           2.24084615e-05     2.31000013e-05     0.00000000e+00    
           1.47174142e-05     2.60858887e-05     0.00000000e+00    
           3.80075478e-04     3.73846386e-04     0.00000000e+00    
           3.75471951e-04     3.73185147e-04     0.00000000e+00    
           3.70051304e-04     3.71514703e-04     0.00000000e+00    
           3.63874802e-04     3.68508074e-04     0.00000000e+00    
           3.57761252e-04     3.64397478e-04     0.00000000e+00    
           3.52881645e-04     3.59970203e-04     0.00000000e+00    
           3.50204326e-04     3.56110628e-04     0.00000000e+00    
           3.49385111e-04     3.53611307e-04     0.00000000e+00    
           3.51267023e-04     3.49380542e-04     0.00000000e+00    
           3.53433104e-04     3.47281253e-04     0.00000000e+00    
           3.56492063e-04     3.45732813e-04     0.00000000e+00    
           3.60130769e-04     3.44742264e-04     0.00000000e+00    
           3.64199048e-04     3.44506872e-04     0.00000000e+00    
           3.68874986e-04     3.44926113e-04     0.00000000e+00    
           3.73921095e-04     3.46259010e-04     0.00000000e+00    
           3.79037694e-04     3.48436355e-04     0.00000000e+00    
          -1.26063842e-05    -4.43593635e-05     0.00000000e+00    
          -1.01381738e-05    -4.00977951e-05     0.00000000e+00    
          -9.18945261e-06    -3.59635960e-05     0.00000000e+00    
          -1.00032094e-05    -3.20001745e-05     0.00000000e+00    
          -1.23730715e-05    -2.87983021e-05     0.00000000e+00    
           8.75204350e-05     4.98288427e-05     0.00000000e+00    
           9.45294378e-05     5.32345039e-05     0.00000000e+00    
           1.00437690e-04     5.76323146e-05     0.00000000e+00    
           1.05675354e-04     6.37620979e-05     0.00000000e+00    
           1.09459084e-04     7.14388298e-05     0.00000000e+00    
           1.10971807e-04     8.00201597e-05     0.00000000e+00    
           1.10674380e-04     8.93623874e-05     0.00000000e+00    
           1.07414664e-04     9.70229157e-05     0.00000000e+00    
           1.01830658e-04     1.02426333e-04     0.00000000e+00    
           9.42743718e-05     1.05216888e-04     0.00000000e+00    
           8.55682156e-05     1.05880870e-04     0.00000000e+00    
           6.76971322e-05     1.01238555e-04     0.00000000e+00    
           5.95033343e-05     9.63606944e-05     0.00000000e+00    
           5.25692813e-05     9.00960222e-05     0.00000000e+00    
           4.74743174e-05     8.25903335e-05     0.00000000e+00    
           4.45095720e-05     7.42103948e-05     0.00000000e+00    
           4.37199415e-05     6.57051642e-05     0.00000000e+00    
           4.50525549e-05     5.82570283e-05     0.00000000e+00    
           4.84950979e-05     5.24568022e-05     0.00000000e+00    
           5.41940390e-05     4.85324854e-05     0.00000000e+00    
           6.15763565e-05     4.64131699e-05     0.00000000e+00    
           7.02012476e-05     4.59339026e-05     0.00000000e+00    
           3.80351295e-04     3.40114930e-04     0.00000000e+00    
           3.83699429e-04     3.46625398e-04     0.00000000e+00    
           3.85507883e-04     3.53858806e-04     0.00000000e+00    
           3.85761115e-04     3.60807404e-04     0.00000000e+00    
           3.84348154e-04     3.66500230e-04     0.00000000e+00    
           3.80943762e-04     3.70561582e-04     0.00000000e+00    
           3.76275100e-04     3.72707029e-04     0.00000000e+00    
           3.71115166e-04     3.73637071e-04     0.00000000e+00    
           3.65531247e-04     3.73486837e-04     0.00000000e+00    
           3.50856542e-04     3.70388705e-04     0.00000000e+00    
           3.42732528e-04     3.66908032e-04     0.00000000e+00    
           3.35849880e-04     3.62152990e-04     0.00000000e+00    
           3.30708746e-04     3.56851408e-04     0.00000000e+00    
           3.27534828e-04     3.50984337e-04     0.00000000e+00    
           3.25968052e-04     3.44785454e-04     0.00000000e+00    
           3.26190639e-04     3.38179030e-04     0.00000000e+00    
           3.28013470e-04     3.31320247e-04     0.00000000e+00    
           3.32201307e-04     3.26046458e-04     0.00000000e+00    
           3.45141510e-04     3.22078093e-04     0.00000000e+00    
           3.51973576e-04     3.22768668e-04     0.00000000e+00    
           3.58695368e-04     3.24613065e-04     0.00000000e+00    
           3.64905834e-04     3.27553193e-04     0.00000000e+00    
           3.70616064e-04     3.30827083e-04     0.00000000e+00    
           3.17245693e-04     2.90152995e-04     0.00000000e+00    
           3.25092115e-04     2.95145903e-04     0.00000000e+00    
           3.32327938e-04     3.00751650e-04     0.00000000e+00    
           3.37236183e-04     3.06711619e-04     0.00000000e+00    
           3.39952996e-04     3.12091084e-04     0.00000000e+00    
           3.40532657e-04     3.17097962e-04     0.00000000e+00    
           3.39884456e-04     3.23219487e-04     0.00000000e+00    
           3.37626872e-04     3.29813367e-04     0.00000000e+00    
           3.33635777e-04     3.35193618e-04     0.00000000e+00    
           3.28036578e-04     3.38885206e-04     0.00000000e+00    
           3.20982654e-04     3.40500963e-04     0.00000000e+00    
           3.13701399e-04     3.39975901e-04     0.00000000e+00    
           2.98985629e-04     3.35986435e-04     0.00000000e+00    
           2.92657991e-04     3.32602562e-04     0.00000000e+00    
           2.87058181e-04     3.28490220e-04     0.00000000e+00    
           2.82380817e-04     3.22986743e-04     0.00000000e+00    
           2.78935564e-04     3.16402380e-04     0.00000000e+00    
           2.76995532e-04     3.08920367e-04     0.00000000e+00    
           2.76926963e-04     3.01593129e-04     0.00000000e+00    
           2.78443971e-04     2.95561476e-04     0.00000000e+00    
           2.81980057e-04     2.91077216e-04     0.00000000e+00    
           2.87256873e-04     2.87962117e-04     0.00000000e+00    
           2.93790421e-04     2.86157301e-04     0.00000000e+00    
           3.01254418e-04     2.85790826e-04     0.00000000e+00    
           3.73375136e-04     3.52477771e-04     0.00000000e+00    
           3.78258905e-04     3.55012162e-04     0.00000000e+00    
           3.82053113e-04     3.58187564e-04     0.00000000e+00    
           3.84316489e-04     3.61565675e-04     0.00000000e+00    
           3.85132735e-04     3.64921289e-04     0.00000000e+00    
           3.84571002e-04     3.68016801e-04     0.00000000e+00    
           3.82905302e-04     3.70497466e-04     0.00000000e+00    
           3.80393583e-04     3.72106326e-04     0.00000000e+00    
           3.77218414e-04     3.72809562e-04     0.00000000e+00    
           3.73856979e-04     3.72412120e-04     0.00000000e+00    
           3.65935761e-04     3.70627618e-04     0.00000000e+00    
           3.61757178e-04     3.68588400e-04     0.00000000e+00    
           3.58175603e-04     3.65540764e-04     0.00000000e+00    
           3.55583878e-04     3.61653889e-04     0.00000000e+00    
           3.54175514e-04     3.56978650e-04     0.00000000e+00    
           3.54388874e-04     3.52435774e-04     0.00000000e+00    
           3.55843775e-04     3.49366281e-04     0.00000000e+00    
           3.58400488e-04     3.48114263e-04     0.00000000e+00    
           3.61250393e-04     3.48521658e-04     0.00000000e+00    
           3.64365405e-04     3.49595415e-04     0.00000000e+00    
           1.37771276e-04     1.38024072e-04     0.00000000e+00    
           1.39562340e-04     1.39017138e-04     0.00000000e+00    
           1.40952689e-04     1.40345423e-04     0.00000000e+00    
           1.42377452e-04     1.42880919e-04     0.00000000e+00    
           1.43180441e-04     1.46174745e-04     0.00000000e+00    
           1.42722376e-04     1.47975064e-04     0.00000000e+00    
           1.41735785e-04     1.48029765e-04     0.00000000e+00    
           1.39843614e-04     1.47030878e-04     0.00000000e+00    
           1.37279567e-04     1.45569153e-04     0.00000000e+00    
           1.34752991e-04     1.43816360e-04     0.00000000e+00    
           1.32196670e-04     1.41963988e-04     0.00000000e+00    
           1.27963300e-04     1.38595089e-04     0.00000000e+00    
           1.26777144e-04     1.37556781e-04     0.00000000e+00    
           1.26223706e-04     1.36883609e-04     0.00000000e+00    
           1.25415187e-04     1.35985072e-04     0.00000000e+00    
           1.24706348e-04     1.35052716e-04     0.00000000e+00    
           1.24290411e-04     1.34262707e-04     0.00000000e+00    
           1.24704995e-04     1.33570415e-04     0.00000000e+00    
           1.25819992e-04     1.33180074e-04     0.00000000e+00    
           1.27666921e-04     1.33405396e-04     0.00000000e+00    
           1.29963330e-04     1.34045549e-04     0.00000000e+00    
           1.32546440e-04     1.35219147e-04     0.00000000e+00    
           8.42613881e-05     8.24610470e-05     0.00000000e+00    
           8.13341248e-05     7.86153760e-05     0.00000000e+00    
           7.95690648e-05     7.38230156e-05     0.00000000e+00    
           7.92148712e-05     6.82724713e-05     0.00000000e+00    
           8.04584779e-05     6.33645977e-05     0.00000000e+00    
           8.36762920e-05     5.97299004e-05     0.00000000e+00    
           8.81712476e-05     5.81137174e-05     0.00000000e+00    
           9.29706293e-05     5.84062836e-05     0.00000000e+00    
           9.75683579e-05     5.93321820e-05     0.00000000e+00    
           1.06183354e-04     6.23118976e-05     0.00000000e+00    
           1.10501009e-04     6.48005444e-05     0.00000000e+00    
           1.14845672e-04     6.87294087e-05     0.00000000e+00    
           1.18429292e-04     7.35209978e-05     0.00000000e+00    
           1.21308927e-04     7.86765886e-05     0.00000000e+00    
           1.22530226e-04     8.32082951e-05     0.00000000e+00    
           1.22311845e-04     8.66939881e-05     0.00000000e+00    
           1.20549732e-04     8.94106270e-05     0.00000000e+00    
           1.17449505e-04     9.14428165e-05     0.00000000e+00    
           1.08177926e-04     9.26248904e-05     0.00000000e+00    
           1.02684309e-04     9.14032571e-05     0.00000000e+00    
           9.70402616e-05     8.96237834e-05     0.00000000e+00    
           9.17171783e-05     8.75189944e-05     0.00000000e+00    
           2.03221891e-04     1.75465102e-04     0.00000000e+00    
           2.06270764e-04     1.77167181e-04     0.00000000e+00    
           2.09200443e-04     1.79057766e-04     0.00000000e+00    
           2.12107843e-04     1.81765266e-04     0.00000000e+00    
           2.14111700e-04     1.85139492e-04     0.00000000e+00    
           2.14920248e-04     1.88878883e-04     0.00000000e+00    
           2.14640662e-04     1.92602092e-04     0.00000000e+00    
           2.13430758e-04     1.95207671e-04     0.00000000e+00    
           2.11518840e-04     1.96409528e-04     0.00000000e+00    
           2.08841506e-04     1.96753113e-04     0.00000000e+00    
           2.05231074e-04     1.96319364e-04     0.00000000e+00    
           1.96046240e-04     1.93507512e-04     0.00000000e+00    
           1.91698899e-04     1.90447288e-04     0.00000000e+00    
           1.87924787e-04     1.86504083e-04     0.00000000e+00    
           1.84961697e-04     1.81904994e-04     0.00000000e+00    
           1.83117721e-04     1.77329202e-04     0.00000000e+00    
           1.82403543e-04     1.73723354e-04     0.00000000e+00    
           1.83065946e-04     1.71362786e-04     0.00000000e+00    
           1.85294091e-04     1.69905994e-04     0.00000000e+00    
           1.88527352e-04     1.69228559e-04     0.00000000e+00    