<?xml version="1.0"?>
<VTKFile type="UnstructuredGrid" version="0.1">
  <UnstructuredGrid>
    <Piece NumberOfPoints="1034" NumberOfCells="1614">
      <Points>
        <DataArray type="Float32" NumberOfComponents="3">
           5.21582007e-01     5.11657000e-01     0.00000000e+00    
           5.07319987e-01     5.11657000e-01     0.00000000e+00    
           4.65243995e-01     5.17907977e-01     0.00000000e+00    
           4.65243995e-01     5.04921973e-01     0.00000000e+00    
           4.75246996e-01     5.11415005e-01     0.00000000e+00    
           5.33852994e-01     5.04921973e-01     0.00000000e+00    
           5.33852994e-01     5.17907977e-01     0.00000000e+00    
           4.83779997e-01     5.34618974e-01     0.00000000e+00    
           4.68984991e-01     5.34618974e-01     0.00000000e+00    
           4.76381987e-01     5.23841977e-01     0.00000000e+00    
           4.68984991e-01     4.66010004e-01     0.00000000e+00    
           4.83779997e-01     4.66010004e-01     0.00000000e+00    
           4.99920011e-01     5.34618974e-01     0.00000000e+00    
           4.89203990e-01     5.34618974e-01     0.00000000e+00    
           4.94562000e-01     5.22280991e-01     0.00000000e+00    
           4.89203990e-01     4.66010004e-01     0.00000000e+00    
           4.99920011e-01     4.66010004e-01     0.00000000e+00    
           5.32517016e-01     4.74112004e-01     0.00000000e+00    
           5.17961025e-01     4.74112004e-01     0.00000000e+00    
           5.33852994e-01     5.19801974e-01     0.00000000e+00    
           5.33852994e-01     5.29603004e-01     0.00000000e+00    
           5.19536972e-01     5.24702013e-01     0.00000000e+00    
           4.65243995e-01     5.29603004e-01     0.00000000e+00    
           4.65243995e-01     5.19801974e-01     0.00000000e+00    
           4.92487997e-01     5.17117977e-01     0.00000000e+00    
           4.76904988e-01     5.17117977e-01     0.00000000e+00    
           5.17996013e-01     5.27033985e-01     0.00000000e+00    
           5.04473984e-01     5.27033985e-01     0.00000000e+00    
           5.08446991e-01     4.83435005e-01     0.00000000e+00    
           4.94414002e-01     4.83435005e-01     0.00000000e+00    
           4.65243995e-01     4.83101994e-01     0.00000000e+00    
           4.65243995e-01     4.74415004e-01     0.00000000e+00    
           4.78336990e-01     4.78758007e-01     0.00000000e+00    
           5.33852994e-01     4.74415004e-01     0.00000000e+00    
           5.33852994e-01     4.83101994e-01     0.00000000e+00    
           4.80668008e-01     4.95810986e-01     0.00000000e+00    
           4.66084987e-01     4.95810986e-01     0.00000000e+00    
           4.93930012e-01     4.79214013e-01     0.00000000e+00    
           4.78967011e-01     4.79214013e-01     0.00000000e+00    
           5.09284973e-01     4.97658014e-01     0.00000000e+00    
           4.95503992e-01     4.97658014e-01     0.00000000e+00    
           5.33011973e-01     5.01751006e-01     0.00000000e+00    
           5.17829001e-01     5.01751006e-01     0.00000000e+00    
           4.95451003e-01     5.00564992e-01     0.00000000e+00    
           4.80922014e-01     5.00564992e-01     0.00000000e+00    
           5.25367022e-01     4.88312006e-01     0.00000000e+00    
           5.09521008e-01     4.88312006e-01     0.00000000e+00    
           4.65243995e-01     5.34618974e-01     0.00000000e+00    
           4.65243995e-01     4.66010004e-01     0.00000000e+00    
           5.33852994e-01     4.66010004e-01     0.00000000e+00    
           5.33852994e-01     5.34618974e-01     0.00000000e+00    
           5.21338999e-01     5.13502657e-01     0.00000000e+00    
           5.20626605e-01     5.15222490e-01     0.00000000e+00    
           5.19493401e-01     5.16699374e-01     0.00000000e+00    
           5.18016517e-01     5.17832637e-01     0.00000000e+00    
           5.16296625e-01     5.18545032e-01     0.00000000e+00    
           5.14451027e-01     5.18787980e-01     0.00000000e+00    
           5.12605369e-01     5.18545032e-01     0.00000000e+00    
           5.10885477e-01     5.17832637e-01     0.00000000e+00    
           5.09408593e-01     5.16699374e-01     0.00000000e+00    
           5.08275390e-01     5.15222490e-01     0.00000000e+00    
           5.07562995e-01     5.13502657e-01     0.00000000e+00    
           5.07562995e-01     5.09811342e-01     0.00000000e+00    
           5.08275390e-01     5.08091509e-01     0.00000000e+00    
           5.09408593e-01     5.06614625e-01     0.00000000e+00    
           5.10885477e-01     5.05481362e-01     0.00000000e+00    
           5.12605369e-01     5.04768968e-01     0.00000000e+00    
           5.14451027e-01     5.04526019e-01     0.00000000e+00    
           5.16296625e-01     5.04768968e-01     0.00000000e+00    
           5.18016517e-01     5.05481362e-01     0.00000000e+00    
           5.19493401e-01     5.06614625e-01     0.00000000e+00    
           5.20626605e-01     5.08091509e-01     0.00000000e+00    
           5.21338999e-01     5.09811342e-01     0.00000000e+00    
           4.66931671e-01     5.04409373e-01     0.00000000e+00    
           4.68693614e-01     5.04328012e-01     0.00000000e+00    
           4.70421344e-01     5.04682958e-01     0.00000000e+00    
           4.72008497e-01     5.05452335e-01     0.00000000e+00    
           4.73357379e-01     5.06588817e-01     0.00000000e+00    
           4.74384934e-01     5.08022368e-01     0.00000000e+00    
           4.75027919e-01     5.09664834e-01     0.00000000e+00    
           4.75028187e-01     5.13165236e-01     0.00000000e+00    
           4.74385172e-01     5.14807761e-01     0.00000000e+00    
           4.73357558e-01     5.16241372e-01     0.00000000e+00    
           4.72008646e-01     5.17377913e-01     0.00000000e+00    
           4.70421433e-01     5.18147290e-01     0.00000000e+00    
           4.68693614e-01     5.18502235e-01     0.00000000e+00    
           4.66931641e-01     5.18420875e-01     0.00000000e+00    
           5.32303810e-01     5.16964078e-01     0.00000000e+00    
           5.31043947e-01     5.15658796e-01     0.00000000e+00    
           5.30155540e-01     5.14077127e-01     0.00000000e+00    
           5.29696345e-01     5.12322068e-01     0.00000000e+00    
           5.29696345e-01     5.10507941e-01     0.00000000e+00    
           5.30155540e-01     5.08752882e-01     0.00000000e+00    
           5.31043947e-01     5.07171214e-01     0.00000000e+00    
           5.32303810e-01     5.05865932e-01     0.00000000e+00    
           4.68517244e-01     5.32760799e-01     0.00000000e+00    
           4.68509018e-01     5.30844629e-01     0.00000000e+00    
           4.68960851e-01     5.28982460e-01     0.00000000e+00    
           4.69846308e-01     5.27283132e-01     0.00000000e+00    
           4.71113682e-01     5.25845945e-01     0.00000000e+00    
           4.72688884e-01     5.24754822e-01     0.00000000e+00    
           4.74479854e-01     5.24073541e-01     0.00000000e+00    
           4.78284091e-01     5.24073601e-01     0.00000000e+00    
           4.80075032e-01     5.24754822e-01     0.00000000e+00    
           4.81650203e-01     5.25845885e-01     0.00000000e+00    
           4.82917547e-01     5.27283013e-01     0.00000000e+00    
           4.83803004e-01     5.28982282e-01     0.00000000e+00    
           4.84254897e-01     5.30844331e-01     0.00000000e+00    
           4.84246761e-01     5.32760441e-01     0.00000000e+00    
           4.82887864e-01     4.67691004e-01     0.00000000e+00    
           4.81620818e-01     4.69110936e-01     0.00000000e+00    
           4.80051905e-01     4.70188022e-01     0.00000000e+00    
           4.78271484e-01     4.70860153e-01     0.00000000e+00    
           4.76382166e-01     4.71088618e-01     0.00000000e+00    
           4.74492878e-01     4.70860243e-01     0.00000000e+00    
           4.72712427e-01     4.70188200e-01     0.00000000e+00    
           4.71143454e-01     4.69111174e-01     0.00000000e+00    
           4.69876349e-01     4.67691302e-01     0.00000000e+00    
           4.88103986e-01     5.33086061e-01     0.00000000e+00    
           4.87431526e-01     5.31323195e-01     0.00000000e+00    
           4.87231195e-01     5.29447019e-01     0.00000000e+00    
           4.87516224e-01     5.27581930e-01     0.00000000e+00    
           4.88267750e-01     5.25851250e-01     0.00000000e+00    
           4.89436030e-01     5.24369657e-01     0.00000000e+00    
           4.90943670e-01     5.23235261e-01     0.00000000e+00    
           4.92690891e-01     5.22523046e-01     0.00000000e+00    
           4.96432930e-01     5.22523701e-01     0.00000000e+00    
           4.98180002e-01     5.23235798e-01     0.00000000e+00    
           4.99687493e-01     5.24370134e-01     0.00000000e+00    
           5.00855684e-01     5.25851607e-01     0.00000000e+00    
           5.01607120e-01     5.27582109e-01     0.00000000e+00    
           5.01892149e-01     5.29447079e-01     0.00000000e+00    
           5.01691818e-01     5.31323016e-01     0.00000000e+00    
           5.01019418e-01     5.33085763e-01     0.00000000e+00    
           4.98371124e-01     4.67269689e-01     0.00000000e+00    
           4.96539861e-01     4.68064904e-01     0.00000000e+00    
           4.94562000e-01     4.68336672e-01     0.00000000e+00    
           4.92584139e-01     4.68064904e-01     0.00000000e+00    
           4.90752876e-01     4.67269689e-01     0.00000000e+00    
           5.32269001e-01     4.75995690e-01     0.00000000e+00    
           5.31541944e-01     4.77750987e-01     0.00000000e+00    
           5.30385315e-01     4.79258329e-01     0.00000000e+00    
           5.28877974e-01     4.80414927e-01     0.00000000e+00    
[...]
      <PointData>
        <DataArray type="Float32" Name="Displacement" NumberOfComponents="3">
           7.53262895e-04     7.12429755e-04     0.00000000e+00    
           7.49167055e-04     8.66831047e-04     0.00000000e+00    
           8.24121817e-04     7.69449223e-04     0.00000000e+00    
           6.89845008e-04     7.50597217e-04     0.00000000e+00    
           7.59992225e-04     6.71971415e-04     0.00000000e+00    
           6.89845008e-04     7.50597217e-04     0.00000000e+00    
           8.24121817e-04     7.69449223e-04     0.00000000e+00    
           1.05677929e-03     9.79202683e-04     0.00000000e+00    
           1.05566706e-03     1.09606842e-03     0.00000000e+00    
           9.60627280e-04     1.02201011e-03     0.00000000e+00    
           5.66709241e-06     4.60684278e-05     0.00000000e+00    
           6.77929438e-06    -7.07972940e-05     0.00000000e+00    
           1.02727639e-03     9.94832371e-04     0.00000000e+00    
           1.02504692e-03     1.04857807e-03     0.00000000e+00    
           9.51027672e-04     1.00404618e-03     0.00000000e+00    
          -2.49530658e-05    -1.42190675e-06     0.00000000e+00    
          -2.27235869e-05    -5.51676785e-05     0.00000000e+00    
           2.27777666e-04     1.31756358e-04     0.00000000e+00    
           2.21266411e-04     2.62534886e-04     0.00000000e+00    
           9.18198028e-04     8.71755357e-04     0.00000000e+00    
           1.00205024e-03     8.89306306e-04     0.00000000e+00    
           9.61801037e-04     9.87011939e-04     0.00000000e+00    
           1.00205024e-03     8.89306306e-04     0.00000000e+00    
           9.18198028e-04     8.71755357e-04     0.00000000e+00    
           8.37625994e-04     7.75384193e-04     0.00000000e+00    
           8.32114718e-04     9.08120943e-04     0.00000000e+00    
           9.86007042e-04     9.52619128e-04     0.00000000e+00    
           9.88676911e-04     1.01933605e-03     0.00000000e+00    
           3.58240155e-04     3.54243413e-04     0.00000000e+00    
           3.49898444e-04     3.86981061e-04     0.00000000e+00    
           2.97655293e-04     2.60993285e-04     0.00000000e+00    
           2.59442808e-04     2.48900265e-04     0.00000000e+00    
           2.83141300e-04     2.15816384e-04     0.00000000e+00    
           2.59442808e-04     2.48900265e-04     0.00000000e+00    
           2.97655293e-04     2.60993285e-04     0.00000000e+00    
           5.51992096e-04     4.97503555e-04     0.00000000e+00    
           5.50410943e-04     5.62429428e-04     0.00000000e+00    
           3.04433925e-04     2.39866538e-04     0.00000000e+00    
           2.96968938e-04     2.67089665e-04     0.00000000e+00    
           5.60214918e-04     4.86343895e-04     0.00000000e+00    
           5.58948959e-04     5.62886649e-04     0.00000000e+00    
           6.25129673e-04     5.70351200e-04     0.00000000e+00    
           6.21218176e-04     7.22119235e-04     0.00000000e+00    
           5.71317505e-04     5.59125969e-04     0.00000000e+00    
           5.70516160e-04     6.11076888e-04     0.00000000e+00    
           4.44388425e-04     3.29830596e-04     0.00000000e+00    
           4.37848183e-04     4.62805358e-04     0.00000000e+00    
           1.04999996e-03     1.04999996e-03     0.00000000e+00    
           0.00000000e+00     0.00000000e+00     0.00000000e+00    
           0.00000000e+00     0.00000000e+00     0.00000000e+00    
           1.04999996e-03     1.04999996e-03     0.00000000e+00    
           7.75624416e-04     7.18593132e-04     0.00000000e+00    
           7.96619337e-04     7.28757412e-04     0.00000000e+00    
           8.14347295e-04     7.43340177e-04     0.00000000e+00    
           8.27251584e-04     7.61380128e-04     0.00000000e+00    
           8.34599778e-04     7.81709387e-04     0.00000000e+00    
           8.36326042e-04     8.02501221e-04     0.00000000e+00    
           8.32886260e-04     8.22322909e-04     0.00000000e+00    
           8.24273389e-04     8.39882123e-04     0.00000000e+00    
           8.10058729e-04     8.53923208e-04     0.00000000e+00    
           7.91602593e-04     8.62863148e-04     0.00000000e+00    
           7.70952145e-04     8.67226743e-04     0.00000000e+00    
           7.27426668e-04     8.61612789e-04     0.00000000e+00    
           7.06753985e-04     8.52230529e-04     0.00000000e+00    
           6.89065142e-04     8.38301959e-04     0.00000000e+00    
           6.75627962e-04     8.21104331e-04     0.00000000e+00    
           6.67343033e-04     8.01756047e-04     0.00000000e+00    
           6.64658379e-04     7.82035582e-04     0.00000000e+00    
           6.67319342e-04     7.62986427e-04     0.00000000e+00    
           6.75245596e-04     7.44692690e-04     0.00000000e+00    
           6.88835338e-04     7.28424930e-04     0.00000000e+00    
           7.06746418e-04     7.17081246e-04     0.00000000e+00    
           7.29259918e-04     7.11907458e-04     0.00000000e+00    
           6.85939449e-04     7.34445406e-04     0.00000000e+00    
           6.86342712e-04     7.18079275e-04     0.00000000e+00    
           6.90504210e-04     7.02740450e-04     0.00000000e+00    
           6.98710617e-04     6.89446053e-04     0.00000000e+00    
           7.10943132e-04     6.79551449e-04     0.00000000e+00    
           7.26159429e-04     6.73251285e-04     0.00000000e+00    
           7.42814329e-04     6.71262387e-04     0.00000000e+00    
           7.76950095e-04     6.75930758e-04     0.00000000e+00    
           7.93002837e-04     6.83111430e-04     0.00000000e+00    
           8.07059288e-04     6.93595561e-04     0.00000000e+00    
           8.18108907e-04     7.06588035e-04     0.00000000e+00    
           8.25752446e-04     7.21588265e-04     0.00000000e+00    
           8.29593744e-04     7.37562543e-04     0.00000000e+00    
           8.28773656e-04     7.54073262e-04     0.00000000e+00    
           8.14426865e-04     7.83265976e-04     0.00000000e+00    
           7.99765345e-04     7.93579209e-04     0.00000000e+00    
           7.81930226e-04     7.98847002e-04     0.00000000e+00    
           7.63101794e-04     7.99714762e-04     0.00000000e+00    
           7.44886172e-04     7.96080625e-04     0.00000000e+00    
           7.26823928e-04     7.89454498e-04     0.00000000e+00    
           7.10826425e-04     7.79504422e-04     0.00000000e+00    
           6.98310556e-04     7.66083656e-04     0.00000000e+00    
           1.03809719e-03     1.09585933e-03     0.00000000e+00    
           1.02119276e-03     1.09271007e-03     0.00000000e+00    
           1.00508705e-03     1.08681794e-03     0.00000000e+00    
           9.90387867e-04     1.07792707e-03     0.00000000e+00    
           9.78085794e-04     1.06641499e-03     0.00000000e+00    
           9.68627573e-04     1.05298904e-03     0.00000000e+00    
           9.62481252e-04     1.03796739e-03     0.00000000e+00    
           9.63217928e-04     1.00605690e-03     0.00000000e+00    
           9.69864661e-04     9.92034678e-04     0.00000000e+00    
           9.79901175e-04     9.80573241e-04     0.00000000e+00    
           9.93174617e-04     9.72493610e-04     0.00000000e+00    
           1.00768229e-03     9.69343877e-04     0.00000000e+00    
           1.02281105e-03     9.70311463e-04     0.00000000e+00    
           1.03938067e-03     9.73227492e-04     0.00000000e+00    
           2.31964750e-05    -6.19327620e-05     0.00000000e+00    
           3.67637622e-05    -5.00676106e-05     0.00000000e+00    
           4.67665450e-05    -3.60094637e-05     0.00000000e+00    
           5.26752156e-05    -2.06052955e-05     0.00000000e+00    
           5.41796981e-05    -4.92155186e-06     0.00000000e+00    
           5.18136076e-05     9.84811777e-06     0.00000000e+00    
           4.56030357e-05     2.33370738e-05     0.00000000e+00    
           3.59276419e-05     3.44531836e-05     0.00000000e+00    
           2.18089390e-05     4.22063094e-05     0.00000000e+00    
           1.01580482e-03     1.05091359e-03     0.00000000e+00    
           1.00606051e-03     1.05015247e-03     0.00000000e+00    
           9.95374401e-04     1.04768481e-03     0.00000000e+00    
           9.83533333e-04     1.04355207e-03     0.00000000e+00    
           9.71654779e-04     1.03837973e-03     0.00000000e+00    
           9.62112856e-04     1.03099737e-03     0.00000000e+00    
           9.55542084e-04     1.02221197e-03     0.00000000e+00    
           9.51774651e-04     1.01314741e-03     0.00000000e+00    
           9.53144743e-04     9.95696289e-04     0.00000000e+00    
           9.58135759e-04     9.88620799e-04     0.00000000e+00    
           9.65382438e-04     9.83440317e-04     0.00000000e+00    
           9.74196359e-04     9.80088953e-04     0.00000000e+00    
           9.83811333e-04     9.79142962e-04     0.00000000e+00    
           9.94608738e-04     9.79858683e-04     0.00000000e+00    
           1.00609404e-03     9.82816564e-04     0.00000000e+00    
           1.01746456e-03     9.87688429e-04     0.00000000e+00    
          -1.49336465e-05    -4.60573137e-05     0.00000000e+00    
          -1.01882160e-05    -3.59204460e-05     0.00000000e+00    
          -8.87802435e-06    -2.55663472e-05     0.00000000e+00    
          -1.10685151e-05    -1.56658771e-05     0.00000000e+00    
          -1.66686277e-05    -7.22867526e-06     0.00000000e+00    
           2.46328651e-04     1.35876588e-04     0.00000000e+00    
           2.62872287e-04     1.44077087e-04     0.00000000e+00    
           2.76556675e-04     1.55721093e-04     0.00000000e+00    
           2.87412055e-04     1.69944877e-04     0.00000000e+00    
           2.94859696e-04     1.86713907e-04     0.00000000e+00    
           2.97248596e-04     2.04869604e-04     0.00000000e+00    
           2.95302976e-04     2.23044524e-04     0.00000000e+00    
           2.87767965e-04     2.39182205e-04     0.00000000e+00    
           2.75781902e-04     2.52383063e-04     0.00000000e+00    
           2.59461231e-04     2.61077861e-04     0.00000000e+00    
           2.40486101e-04     2.64506409e-04     0.00000000e+00    
           2.01969015e-04     2.57226464e-04     0.00000000e+00    
           1.84447374e-04     2.47791060e-04     0.00000000e+00    
           1.69618434e-04     2.35022191e-04     0.00000000e+00    
           1.58627547e-04     2.19495108e-04     0.00000000e+00    
           1.52191496e-04     2.02248702e-04     0.00000000e+00    
           1.50603679e-04     1.84609613e-04     0.00000000e+00    
           1.53460292e-04     1.67749415e-04     0.00000000e+00    
           1.60781055e-04     1.53032626e-04     0.00000000e+00    
           1.73052220e-04     1.41354409e-04     0.00000000e+00    
           1.89700106e-04     1.34079179e-04     0.00000000e+00    
           2.08697747e-04     1.30966859e-04     0.00000000e+00    
           1.01291889e-03     9.01675317e-04     0.00000000e+00    
           1.02058845e-03     9.16009070e-04     0.00000000e+00    
           1.02469558e-03     9.31272400e-04     0.00000000e+00    
           1.02523318e-03     9.46549699e-04     0.00000000e+00    
           1.02187623e-03     9.60672915e-04     0.00000000e+00    
           1.01449608e-03     9.72773356e-04     0.00000000e+00    
           1.00361113e-03     9.81359859e-04     0.00000000e+00    
           9.91171692e-04     9.86310188e-04     0.00000000e+00    
           9.77629912e-04     9.87895182e-04     0.00000000e+00    
           9.43846942e-04     9.83220176e-04     0.00000000e+00    
           9.25840752e-04     9.76365292e-04     0.00000000e+00    
           9.10722127e-04     9.65967716e-04     0.00000000e+00    
           8.99207604e-04     9.53040726e-04     0.00000000e+00    
           8.91996722e-04     9.38400917e-04     0.00000000e+00    
           8.88775161e-04     9.23353655e-04     0.00000000e+00    
           8.89833085e-04     9.08058777e-04     0.00000000e+00    
           8.94834928e-04     8.93386081e-04     0.00000000e+00    
           9.04449611e-04     8.80981155e-04     0.00000000e+00    
           9.32760944e-04     8.67322844e-04     0.00000000e+00    
           9.47893364e-04     8.66708695e-04     0.00000000e+00    
           9.62808903e-04     8.68955336e-04     0.00000000e+00    
           9.76851559e-04     8.73876095e-04     0.00000000e+00    
           9.90127097e-04     8.80476087e-04     0.00000000e+00    
           8.55645514e-04     7.80338421e-04     0.00000000e+00    
           8.72690114e-04     7.88475329e-04     0.00000000e+00    
           8.88219336e-04     7.99309579e-04     0.00000000e+00    
           8.99968960e-04     8.13112594e-04     0.00000000e+00    
           9.07848182e-04     8.28543853e-04     0.00000000e+00    
           9.11403098e-04     8.44920229e-04     0.00000000e+00    
           9.10308270e-04     8.61652254e-04     0.00000000e+00    
           9.05104156e-04     8.77486891e-04     0.00000000e+00    
           8.96060665e-04     8.90985015e-04     0.00000000e+00    
           8.83342582e-04     9.01757099e-04     0.00000000e+00    
           8.66967952e-04     9.08073271e-04     0.00000000e+00    
           8.49767821e-04     9.09369905e-04     0.00000000e+00    
           8.14953120e-04     9.03226202e-04     0.00000000e+00    
           7.98935362e-04     8.95424804e-04     0.00000000e+00    
           7.84748408e-04     8.84606212e-04     0.00000000e+00    
           7.73583364e-04     8.71055468e-04     0.00000000e+00    
           7.65721721e-04     8.55508202e-04     0.00000000e+00    
           7.61655159e-04     8.38788575e-04     0.00000000e+00    
           7.62048294e-04     8.22352536e-04     0.00000000e+00    
           7.65986100e-04     8.06930824e-04     0.00000000e+00    
           7.74241926e-04     7.93589861e-04     0.00000000e+00    
           7.86504941e-04     7.83085939e-04     0.00000000e+00    
           8.02136899e-04     7.76522269e-04     0.00000000e+00    
           8.19582725e-04     7.74096523e-04     0.00000000e+00    
           9.98463365e-04     9.55970609e-04     0.00000000e+00    
           1.01085007e-03     9.61867743e-04     0.00000000e+00    
           1.02069264e-03     9.70102439e-04     0.00000000e+00    
           1.02706312e-03     9.79866949e-04     0.00000000e+00    
           1.02984451e-03     9.90213244e-04     0.00000000e+00    
           1.02895638e-03     1.00027479e-03     0.00000000e+00    
           1.02483272e-03     1.00905448e-03     0.00000000e+00    
           1.01797376e-03     1.01565081e-03     0.00000000e+00    
           1.00909092e-03     1.01959880e-03     0.00000000e+00    
           9.99422628e-04     1.02025864e-03     0.00000000e+00    
           9.77187650e-04     1.01613661e-03     0.00000000e+00    
           9.66004329e-04     1.01045868e-03     0.00000000e+00    
           9.56746168e-04     1.00216258e-03     0.00000000e+00    
           9.50398040e-04     9.91876936e-04     0.00000000e+00    
           9.47283348e-04     9.80347279e-04     0.00000000e+00    
           9.48075904e-04     9.69581190e-04     0.00000000e+00    
           9.51598864e-04     9.60520643e-04     0.00000000e+00    
           9.58012650e-04     9.53934912e-04     0.00000000e+00    
           9.66001535e-04     9.51100199e-04     0.00000000e+00    
           9.74820578e-04     9.51141876e-04     0.00000000e+00    
           3.65243322e-04     3.57064739e-04     0.00000000e+00    
           3.70962720e-04     3.60565085e-04     0.00000000e+00    
           3.75317351e-04     3.65151063e-04     0.00000000e+00    
           3.78531025e-04     3.70816968e-04     0.00000000e+00    
           3.79857549e-04     3.76354408e-04     0.00000000e+00    
           3.79737059e-04     3.81450111e-04     0.00000000e+00    
           3.78302590e-04     3.85678926e-04     0.00000000e+00    
           3.75418342e-04     3.88982211e-04     0.00000000e+00    
           3.69548419e-04     3.90739413e-04     0.00000000e+00    
           3.62880965e-04     3.90562462e-04     0.00000000e+00    
           3.56014352e-04     3.89108027e-04     0.00000000e+00    
           3.43821797e-04     3.84704705e-04     0.00000000e+00    
           3.38429702e-04     3.81214806e-04     0.00000000e+00    
           3.34298122e-04     3.77179618e-04     0.00000000e+00    
           3.31139512e-04     3.72551964e-04     0.00000000e+00    
           3.29118309e-04     3.67700413e-04     0.00000000e+00    
           3.28366703e-04     3.62736726e-04     0.00000000e+00    
           3.29611416e-04     3.58010613e-04     0.00000000e+00    
           3.32692987e-04     3.53982381e-04     0.00000000e+00    
           3.37841164e-04     3.51574068e-04     0.00000000e+00    
           3.44353059e-04     3.50773509e-04     0.00000000e+00    
           3.51431809e-04     3.51881929e-04     0.00000000e+00    
           2.54823448e-04     2.43670627e-04     0.00000000e+00    
           2.51556892e-04     2.37612898e-04     0.00000000e+00    
           2.50033714e-04     2.31044411e-04     0.00000000e+00    
           2.50440207e-04     2.24551870e-04     0.00000000e+00    
           2.52648751e-04     2.18960879e-04     0.00000000e+00    
           2.57123611e-04     2.14216125e-04     0.00000000e+00    
           2.63531052e-04     2.11365405e-04     0.00000000e+00    
           2.70478748e-04     2.11830935e-04     0.00000000e+00    
           2.76877166e-04     2.13710649e-04     0.00000000e+00    
           2.89632299e-04     2.18491114e-04     0.00000000e+00    
           2.95673148e-04     2.22084811e-04     0.00000000e+00    
           3.01510008e-04     2.27292054e-04     0.00000000e+00    
           3.06105881e-04     2.33065381e-04     0.00000000e+00    
           3.09499330e-04     2.39208806e-04     0.00000000e+00    
           3.10797623e-04     2.45229749e-04     0.00000000e+00    
           3.10447387e-04     2.50637386e-04     0.00000000e+00    
           3.08310176e-04     2.55377614e-04     0.00000000e+00    
           3.04149318e-04     2.58941553e-04     0.00000000e+00    
           2.89966381e-04     2.60703382e-04     0.00000000e+00    
           2.82129768e-04     2.58570712e-04     0.00000000e+00    
           2.74057005e-04     2.56492000e-04     0.00000000e+00    
           2.66048446e-04     2.53545819e-04     0.00000000e+00    
           5.60977089e-04     5.01331990e-04     0.00000000e+00    
           5.69622789e-04     5.06206532e-04     0.00000000e+00    
           5.77189436e-04     5.12325205e-04     0.00000000e+00    
           5.83831570e-04     5.20129281e-04     0.00000000e+00    
           5.88150462e-04     5.29402925e-04     0.00000000e+00    
           5.89527248e-04     5.39212953e-04     0.00000000e+00    
           5.88127645e-04     5.48348587e-04     0.00000000e+00    
           5.84479130e-04     5.55875711e-04     0.00000000e+00    
           5.79034968e-04     5.61046530e-04     0.00000000e+00    
           5.71665238e-04     5.63595677e-04     0.00000000e+00    
           5.62012545e-04     5.63669018e-04     0.00000000e+00    
           5.38694556e-04     5.58803091e-04     0.00000000e+00    
           5.28280507e-04     5.52652695e-04     0.00000000e+00    
           5.19831083e-04     5.44751179e-04     0.00000000e+00    
           5.13642095e-04     5.35848842e-04     0.00000000e+00    
           5.10082755e-04     5.26654592e-04     0.00000000e+00    
           5.08852128e-04     5.17489796e-04     0.00000000e+00    
           5.10052021e-04     5.09224366e-04     0.00000000e+00    
           5.14527957e-04     5.01895614e-04     0.00000000e+00    
           5.22184302e-04     4.96577937e-04     0.00000000e+00    