<?xml version="1.0"?>
<VTKFile type="UnstructuredGrid" version="0.1">
  <UnstructuredGrid>
    <Piece NumberOfPoints="1034" NumberOfCells="1614">
      <Points>
        <DataArray type="Float32" NumberOfComponents="3">
           5.21582007e-01     5.11657000e-01     0.00000000e+00    
           5.07319987e-01     5.11657000e-01     0.00000000e+00    
           4.65243995e-01     5.17907977e-01     0.00000000e+00    
           4.65243995e-01     5.04921973e-01     0.00000000e+00    
           4.75246996e-01     5.11415005e-01     0.00000000e+00    
           5.33852994e-01     5.04921973e-01     0.00000000e+00    
           5.33852994e-01     5.17907977e-01     0.00000000e+00    
           4.83779997e-01     5.34618974e-01     0.00000000e+00    
           4.68984991e-01     5.34618974e-01     0.00000000e+00    
           4.76381987e-01     5.23841977e-01     0.00000000e+00    
           4.68984991e-01     4.66010004e-01     0.00000000e+00    
           4.83779997e-01     4.66010004e-01     0.00000000e+00    
           4.99920011e-01     5.34618974e-01     0.00000000e+00    
           4.89203990e-01     5.34618974e-01     0.00000000e+00    
           4.94562000e-01     5.22280991e-01     0.00000000e+00    
           4.89203990e-01     4.66010004e-01     0.00000000e+00    
           4.99920011e-01     4.66010004e-01     0.00000000e+00    
           5.32517016e-01     4.74112004e-01     0.00000000e+00    
           5.17961025e-01     4.74112004e-01     0.00000000e+00    
           5.33852994e-01     5.19801974e-01     0.00000000e+00    
           5.33852994e-01     5.29603004e-01     0.00000000e+00    
           5.19536972e-01     5.24702013e-01     0.00000000e+00    
           4.65243995e-01     5.29603004e-01     0.00000000e+00    
           4.65243995e-01     5.19801974e-01     0.00000000e+00    
           4.92487997e-01     5.17117977e-01     0.00000000e+00    
           4.76904988e-01     5.17117977e-01     0.00000000e+00    
           5.17996013e-01     5.27033985e-01     0.00000000e+00    
           5.04473984e-01     5.27033985e-01     0.00000000e+00    
           5.08446991e-01     4.83435005e-01     0.00000000e+00    
           4.94414002e-01     4.83435005e-01     0.00000000e+00    
           4.65243995e-01     4.83101994e-01     0.00000000e+00    
           4.65243995e-01     4.74415004e-01     0.00000000e+00    
           4.78336990e-01     4.78758007e-01     0.00000000e+00    
           5.33852994e-01     4.74415004e-01     0.00000000e+00    
           5.33852994e-01     4.83101994e-01     0.00000000e+00    
           4.80668008e-01     4.95810986e-01     0.00000000e+00    
           4.66084987e-01     4.95810986e-01     0.00000000e+00    
           4.93930012e-01     4.79214013e-01     0.00000000e+00    
           4.78967011e-01     4.79214013e-01     0.00000000e+00    
           5.09284973e-01     4.97658014e-01     0.00000000e+00    
           4.95503992e-01     4.97658014e-01     0.00000000e+00    
           5.33011973e-01     5.01751006e-01     0.00000000e+00    
           5.17829001e-01     5.01751006e-01     0.00000000e+00    
           4.95451003e-01     5.00564992e-01     0.00000000e+00    
           4.80922014e-01     5.00564992e-01     0.00000000e+00    
           5.25367022e-01     4.88312006e-01     0.00000000e+00    
           5.09521008e-01     4.88312006e-01     0.00000000e+00    
           4.65243995e-01     5.34618974e-01     0.00000000e+00    
           4.65243995e-01     4.66010004e-01     0.00000000e+00    
           5.33852994e-01     4.66010004e-01     0.00000000e+00    
           5.33852994e-01     5.34618974e-01     0.00000000e+00    
           5.21338999e-01     5.13502657e-01     0.00000000e+00    
           5.20626605e-01     5.15222490e-01     0.00000000e+00    
           5.19493401e-01     5.16699374e-01     0.00000000e+00    
           5.18016517e-01     5.17832637e-01     0.00000000e+00    
           5.16296625e-01     5.18545032e-01     0.00000000e+00    
           5.14451027e-01     5.18787980e-01     0.00000000e+00    
           5.12605369e-01     5.18545032e-01     0.00000000e+00    
           5.10885477e-01     5.17832637e-01     0.00000000e+00    
           5.09408593e-01     5.16699374e-01     0.00000000e+00    
           5.08275390e-01     5.15222490e-01     0.00000000e+00    
           5.07562995e-01     5.13502657e-01     0.00000000e+00    
           5.07562995e-01     5.09811342e-01     0.00000000e+00    
           5.08275390e-01     5.08091509e-01     0.00000000e+00    
           5.09408593e-01     5.06614625e-01     0.00000000e+00    
           5.10885477e-01     5.05481362e-01     0.00000000e+00    
           5.12605369e-01     5.04768968e-01     0.00000000e+00    
           5.14451027e-01     5.04526019e-01     0.00000000e+00    
           5.16296625e-01     5.04768968e-01     0.00000000e+00    
           5.18016517e-01     5.05481362e-01     0.00000000e+00    
           5.19493401e-01     5.06614625e-01     0.00000000e+00    
           5.20626605e-01     5.08091509e-01     0.00000000e+00    
           5.21338999e-01     5.09811342e-01     0.00000000e+00    
           4.66931671e-01     5.04409373e-01     0.00000000e+00    
           4.68693614e-01     5.04328012e-01     0.00000000e+00    
           4.70421344e-01     5.04682958e-01     0.00000000e+00    
           4.72008497e-01     5.05452335e-01     0.00000000e+00    
           4.73357379e-01     5.06588817e-01     0.00000000e+00    
           4.74384934e-01     5.08022368e-01     0.00000000e+00    
           4.75027919e-01     5.09664834e-01     0.00000000e+00    
           4.75028187e-01     5.13165236e-01     0.00000000e+00    
           4.74385172e-01     5.14807761e-01     0.00000000e+00    
           4.73357558e-01     5.16241372e-01     0.00000000e+00    
           4.72008646e-01     5.17377913e-01     0.00000000e+00    
           4.70421433e-01     5.18147290e-01     0.00000000e+00    
           4.68693614e-01     5.18502235e-01     0.00000000e+00    
           4.66931641e-01     5.18420875e-01     0.00000000e+00    
           5.32303810e-01     5.16964078e-01     0.00000000e+00    
           5.31043947e-01     5.15658796e-01     0.00000000e+00    
           5.30155540e-01     5.14077127e-01     0.00000000e+00    
           5.29696345e-01     5.12322068e-01     0.00000000e+00    
           5.29696345e-01     5.10507941e-01     0.00000000e+00    
           5.30155540e-01     5.08752882e-01     0.00000000e+00    
           5.31043947e-01     5.07171214e-01     0.00000000e+00    
           5.32303810e-01     5.05865932e-01     0.00000000e+00    
           4.68517244e-01     5.32760799e-01     0.00000000e+00    
           4.68509018e-01     5.30844629e-01     0.00000000e+00    
           4.68960851e-01     5.28982460e-01     0.00000000e+00    
           4.69846308e-01     5.27283132e-01     0.00000000e+00    
           4.71113682e-01     5.25845945e-01     0.00000000e+00    
           4.72688884e-01     5.24754822e-01     0.00000000e+00    
           4.74479854e-01     5.24073541e-01     0.00000000e+00    
           4.78284091e-01     5.24073601e-01     0.00000000e+00    
           4.80075032e-01     5.24754822e-01     0.00000000e+00    
           4.81650203e-01     5.25845885e-01     0.00000000e+00    
           4.82917547e-01     5.27283013e-01     0.00000000e+00    
           4.83803004e-01     5.28982282e-01     0.00000000e+00    
           4.84254897e-01     5.30844331e-01     0.00000000e+00    
           4.84246761e-01     5.32760441e-01     0.00000000e+00    
           4.82887864e-01     4.67691004e-01     0.00000000e+00    
           4.81620818e-01     4.69110936e-01     0.00000000e+00    
           4.80051905e-01     4.70188022e-01     0.00000000e+00    
           4.78271484e-01     4.70860153e-01     0.00000000e+00    
           4.76382166e-01     4.71088618e-01     0.00000000e+00    
           4.74492878e-01     4.70860243e-01     0.00000000e+00    
           4.72712427e-01     4.70188200e-01     0.00000000e+00    
           4.71143454e-01     4.69111174e-01     0.00000000e+00    
           4.69876349e-01     4.67691302e-01     0.00000000e+00    
           4.88103986e-01     5.33086061e-01     0.00000000e+00    
           4.87431526e-01     5.31323195e-01     0.00000000e+00    
           4.87231195e-01     5.29447019e-01     0.00000000e+00    
           4.87516224e-01     5.27581930e-01     0.00000000e+00    
           4.88267750e-01     5.25851250e-01     0.00000000e+00    
           4.89436030e-01     5.24369657e-01     0.00000000e+00    
           4.90943670e-01     5.23235261e-01     0.00000000e+00    
           4.92690891e-01     5.22523046e-01     0.00000000e+00    
           4.96432930e-01     5.22523701e-01     0.00000000e+00    
           4.98180002e-01     5.23235798e-01     0.00000000e+00    
           4.99687493e-01     5.24370134e-01     0.00000000e+00    
           5.00855684e-01     5.25851607e-01     0.00000000e+00    
           5.01607120e-01     5.27582109e-01     0.00000000e+00    
           5.01892149e-01     5.29447079e-01     0.00000000e+00    
           5.01691818e-01     5.31323016e-01     0.00000000e+00    
           5.01019418e-01     5.33085763e-01     0.00000000e+00    
           4.98371124e-01     4.67269689e-01     0.00000000e+00    
           4.96539861e-01     4.68064904e-01     0.00000000e+00    
           4.94562000e-01     4.68336672e-01     0.00000000e+00    
           4.92584139e-01     4.68064904e-01     0.00000000e+00    
           4.90752876e-01     4.67269689e-01     0.00000000e+00    
           5.32269001e-01     4.75995690e-01     0.00000000e+00    
           5.31541944e-01     4.77750987e-01     0.00000000e+00    
           5.30385315e-01     4.79258329e-01     0.00000000e+00    
           5.28877974e-01     4.80414927e-01     0.00000000e+00    
[...]
      <PointData>
        <DataArray type="Float32" Name="Displacement" NumberOfComponents="3">
           3.44398504e-05     3.14140489e-05     0.00000000e+00    
           3.43417669e-05     3.89263878e-05     0.00000000e+00    
           3.58680190e-05     3.37520833e-05     0.00000000e+00    
           3.06786096e-05     3.13984638e-05     0.00000000e+00    
           3.33367716e-05     3.04558434e-05     0.00000000e+00    
           3.06786096e-05     3.13984638e-05     0.00000000e+00    
           3.58680190e-05     3.37520833e-05     0.00000000e+00    
           5.10344871e-05     4.58024770e-05     0.00000000e+00    
           5.09714882e-05     5.37456872e-05     0.00000000e+00    
           4.40776785e-05     4.84091470e-05     0.00000000e+00    
           9.71487907e-07     3.74568867e-06     0.00000000e+00    
           1.03448588e-06    -4.19752223e-06     0.00000000e+00    
           4.78051188e-05     4.34535687e-05     0.00000000e+00    
           4.79154260e-05     4.60343581e-05     0.00000000e+00    
           4.34364883e-05     4.30873806e-05     0.00000000e+00    
          -2.08457573e-06    -3.96564019e-06     0.00000000e+00    
          -2.19488106e-06    -6.54643009e-06     0.00000000e+00    
           9.98321684e-06     6.33274658e-06     0.00000000e+00    
           9.72361795e-06     1.44441137e-05     0.00000000e+00    
           4.14749084e-05     3.98626908e-05     0.00000000e+00    
           4.68232829e-05     4.18073505e-05     0.00000000e+00    
           4.44995494e-05     4.70395753e-05     0.00000000e+00    
           4.68232829e-05     4.18073505e-05     0.00000000e+00    
           4.14749084e-05     3.98626908e-05     0.00000000e+00    
           3.82667640e-05     3.58681355e-05     0.00000000e+00    
           3.78069599e-05     4.20916149e-05     0.00000000e+00    
           4.59685471e-05     4.39087416e-05     0.00000000e+00    
           4.62221687e-05     4.67514765e-05     0.00000000e+00    
           1.75379701e-05     1.77655947e-05     0.00000000e+00    
           1.66698883e-05     1.73618246e-05     0.00000000e+00    
           1.46308930e-05     1.19306687e-05     0.00000000e+00    
           1.09975490e-05     1.08128615e-05     0.00000000e+00    
           1.29841355e-05     7.41326994e-06     0.00000000e+00    
           1.09975490e-05     1.08128615e-05     0.00000000e+00    
           1.46308930e-05     1.19306687e-05     0.00000000e+00    
           2.47781772e-05     2.14588890e-05     0.00000000e+00    
           2.49877503e-05     2.41304751e-05     0.00000000e+00    
           1.45559998e-05     9.90452736e-06     0.00000000e+00    
           1.37590450e-05     9.58019154e-06     0.00000000e+00    
           2.43328814e-05     2.12677060e-05     0.00000000e+00    
           2.44580970e-05     2.48556116e-05     0.00000000e+00    
           2.84080415e-05     2.68444783e-05     0.00000000e+00    
           2.82441051e-05     2.98728410e-05     0.00000000e+00    
           2.52807695e-05     2.49201985e-05     0.00000000e+00    
           2.54178649e-05     2.81878583e-05     0.00000000e+00    
           2.20036018e-05     2.01897619e-05     0.00000000e+00    
           2.17648030e-05     2.44227358e-05     0.00000000e+00    
           4.99999987e-05     4.99999987e-05     0.00000000e+00    
           0.00000000e+00     0.00000000e+00     0.00000000e+00    
           0.00000000e+00     0.00000000e+00     0.00000000e+00    
           4.99999987e-05     4.99999987e-05     0.00000000e+00    
           3.57045210e-05     3.19443752e-05     0.00000000e+00    
           3.68817273e-05     3.26641130e-05     0.00000000e+00    
           3.78375735e-05     3.34990145e-05     0.00000000e+00    
           3.85046442e-05     3.43622014e-05     0.00000000e+00    
           3.88791086e-05     3.53876603e-05     0.00000000e+00    
           3.89843808e-05     3.64921580e-05     0.00000000e+00    
           3.88152221e-05     3.74828232e-05     0.00000000e+00    
           3.83420484e-05     3.82027138e-05     0.00000000e+00    
           3.75819654e-05     3.87025248e-05     0.00000000e+00    
           3.66201602e-05     3.89791858e-05     0.00000000e+00    
           3.55252414e-05     3.90733076e-05     0.00000000e+00    
           3.31414376e-05     3.84985724e-05     0.00000000e+00    
           3.20226245e-05     3.78854529e-05     0.00000000e+00    
           3.10757896e-05     3.71328388e-05     0.00000000e+00    
           3.03674078e-05     3.63394174e-05     0.00000000e+00    
           2.99574604e-05     3.54698459e-05     0.00000000e+00    
           2.98320665e-05     3.45415028e-05     0.00000000e+00    
           2.99478997e-05     3.35531586e-05     0.00000000e+00    
           3.03095112e-05     3.25138790e-05     0.00000000e+00    
           3.09488205e-05     3.15174839e-05     0.00000000e+00    
           3.18679849e-05     3.11897747e-05     0.00000000e+00    
           3.31003575e-05     3.11713557e-05     0.00000000e+00    
           3.06774418e-05     3.12015763e-05     0.00000000e+00    
           3.06832735e-05     3.08273884e-05     0.00000000e+00    
           3.07983282e-05     3.04061541e-05     0.00000000e+00    
           3.10844953e-05     3.01433392e-05     0.00000000e+00    
           3.15092257e-05     3.00698466e-05     0.00000000e+00    
           3.20534236e-05     3.00855863e-05     0.00000000e+00    
           3.26641348e-05     3.02405133e-05     0.00000000e+00    
           3.39658836e-05     3.07275623e-05     0.00000000e+00    
           3.45038898e-05     3.09853094e-05     0.00000000e+00    
           3.49854199e-05     3.13096753e-05     0.00000000e+00    
           3.53925061e-05     3.16977967e-05     0.00000000e+00    
           3.57237186e-05     3.21421940e-05     0.00000000e+00    
           3.59393089e-05     3.25932924e-05     0.00000000e+00    
           3.59742116e-05     3.31286392e-05     0.00000000e+00    
           3.54454532e-05     3.42728272e-05     0.00000000e+00    
           3.47809146e-05     3.44227738e-05     0.00000000e+00    
           3.40025654e-05     3.42412459e-05     0.00000000e+00    
           3.31729061e-05     3.39158760e-05     0.00000000e+00    
           3.23231434e-05     3.33623357e-05     0.00000000e+00    
           3.14631543e-05     3.25951842e-05     0.00000000e+00    
           3.07251576e-05     3.16298392e-05     0.00000000e+00    
           3.06221373e-05     3.13445198e-05     0.00000000e+00    
           4.96807443e-05     5.36166226e-05     0.00000000e+00    
           4.84316261e-05     5.32748381e-05     0.00000000e+00    
           4.72886968e-05     5.27826924e-05     0.00000000e+00    
           4.62840362e-05     5.21530164e-05     0.00000000e+00    
           4.54206674e-05     5.13528939e-05     0.00000000e+00    
           4.47216844e-05     5.04306627e-05     0.00000000e+00    
           4.42448109e-05     4.94385276e-05     0.00000000e+00    
           4.42174278e-05     4.73203800e-05     0.00000000e+00    
           4.46380072e-05     4.63300894e-05     0.00000000e+00    
           4.52930799e-05     4.56040943e-05     0.00000000e+00    
           4.61724194e-05     4.51388260e-05     0.00000000e+00    
           4.71872991e-05     4.49319341e-05     0.00000000e+00    
           4.83432632e-05     4.49626896e-05     0.00000000e+00    
           4.96524735e-05     4.52270215e-05     0.00000000e+00    
           2.34874938e-06    -3.37931419e-06     0.00000000e+00    
           3.44446107e-06    -2.38720872e-06     0.00000000e+00    
           4.21794084e-06    -1.36317794e-06     0.00000000e+00    
           4.62968001e-06    -3.59241824e-07     0.00000000e+00    
           4.70356918e-06     7.79429627e-07     0.00000000e+00    
           4.52208769e-06     1.88993499e-06     0.00000000e+00    
           4.00673616e-06     2.75968728e-06     0.00000000e+00    
           3.17920626e-06     3.30630655e-06     0.00000000e+00    
           2.13390149e-06     3.62411765e-06     0.00000000e+00    
           4.73832988e-05     4.60678530e-05     0.00000000e+00    
           4.67618593e-05     4.59524745e-05     0.00000000e+00    
           4.60201554e-05     4.56923481e-05     0.00000000e+00    
           4.51536653e-05     4.52281056e-05     0.00000000e+00    
           4.42726086e-05     4.45424957e-05     0.00000000e+00    
           4.35700895e-05     4.37445269e-05     0.00000000e+00    
           4.32748202e-05     4.32602028e-05     0.00000000e+00    
           4.33001405e-05     4.31594162e-05     0.00000000e+00    
           4.36096634e-05     4.29211213e-05     0.00000000e+00    
           4.38699753e-05     4.27338055e-05     0.00000000e+00    
           4.42460841e-05     4.25883809e-05     0.00000000e+00    
           4.46955419e-05     4.24954706e-05     0.00000000e+00    
           4.52122040e-05     4.24778445e-05     0.00000000e+00    
           4.58218092e-05     4.25389480e-05     0.00000000e+00    
           4.64915865e-05     4.27195082e-05     0.00000000e+00    
           4.71779131e-05     4.30158943e-05     0.00000000e+00    
          -1.68279735e-06    -6.02517366e-06     0.00000000e+00    
          -1.34017705e-06    -5.48704611e-06     0.00000000e+00    
          -1.20311154e-06    -4.99342332e-06     0.00000000e+00    
          -1.30959495e-06    -4.52959966e-06     0.00000000e+00    
          -1.62218521e-06    -4.17109413e-06     0.00000000e+00    
           1.11749378e-05     6.73629165e-06     0.00000000e+00    
           1.21230642e-05     7.17204284e-06     0.00000000e+00    
           1.29813207e-05     7.73551528e-06     0.00000000e+00    
           1.37809229e-05     8.60958244e-06     0.00000000e+00    
           1.43735160e-05     9.74842533e-06     0.00000000e+00    
           1.46471375e-05     1.10549463e-05     0.00000000e+00    
           1.46646553e-05     1.25688048e-05     0.00000000e+00    
           1.42020890e-05     1.37460383e-05     0.00000000e+00    
           1.33667309e-05     1.44313017e-05     0.00000000e+00    
           1.22694819e-05     1.47044320e-05     0.00000000e+00    
           1.10134561e-05     1.47206292e-05     0.00000000e+00    
           8.41308702e-06     1.39470003e-05     0.00000000e+00    
           7.21437300e-06     1.31935794e-05     0.00000000e+00    
           6.20333412e-06     1.22536467e-05     0.00000000e+00    
           5.46140745e-06     1.11397576e-05     0.00000000e+00    
           5.02338798e-06     9.88166266e-06     0.00000000e+00    
           4.90154207e-06     8.59304782e-06     0.00000000e+00    
           5.10547898e-06     7.52544247e-06     0.00000000e+00    
           5.61430579e-06     6.76756463e-06     0.00000000e+00    
           6.43669182e-06     6.30908517e-06     0.00000000e+00    
           7.47810691e-06     6.07319862e-06     0.00000000e+00    
           8.70251279e-06     6.05634068e-06     0.00000000e+00    
           4.74933368e-05     4.25867329e-05     0.00000000e+00    
           4.79887203e-05     4.35475085e-05     0.00000000e+00    
           4.82696960e-05     4.46493068e-05     0.00000000e+00    
           4.83146032e-05     4.57094029e-05     0.00000000e+00    
           4.81138341e-05     4.65086632e-05     0.00000000e+00    
           4.76212554e-05     4.69969600e-05     0.00000000e+00    
           4.69722472e-05     4.71940766e-05     0.00000000e+00    
           4.62541757e-05     4.72579268e-05     0.00000000e+00    
           4.54672954e-05     4.71999301e-05     0.00000000e+00    
           4.33500463e-05     4.66804813e-05     0.00000000e+00    
           4.21775912e-05     4.61236850e-05     0.00000000e+00    
           4.11884721e-05     4.54107758e-05     0.00000000e+00    
           4.04593411e-05     4.46806480e-05     0.00000000e+00    
           4.00044592e-05     4.38884126e-05     0.00000000e+00    
           3.97563090e-05     4.30226100e-05     0.00000000e+00    
           3.97509866e-05     4.20606411e-05     0.00000000e+00    
           3.99681085e-05     4.09918175e-05     0.00000000e+00    
           4.05622741e-05     4.02241785e-05     0.00000000e+00    
           4.24351056e-05     3.98429584e-05     0.00000000e+00    
           4.34235408e-05     3.99997116e-05     0.00000000e+00    
           4.43992722e-05     4.03123413e-05     0.00000000e+00    
           4.52983149e-05     4.07819171e-05     0.00000000e+00    
           4.61069612e-05     4.12692134e-05     0.00000000e+00    
           3.93481132e-05     3.63439503e-05     0.00000000e+00    
           4.04326565e-05     3.71100541e-05     0.00000000e+00    
           4.14296992e-05     3.80175734e-05     0.00000000e+00    
           4.20251345e-05     3.88139670e-05     0.00000000e+00    
           4.22533994e-05     3.92924157e-05     0.00000000e+00    
           4.22634148e-05     3.97361910e-05     0.00000000e+00    
           4.21949953e-05     4.04250495e-05     0.00000000e+00    
           4.19275311e-05     4.12473346e-05     0.00000000e+00    
           4.14130554e-05     4.19138414e-05     0.00000000e+00    
           4.06762774e-05     4.23306556e-05     0.00000000e+00    
           3.97496406e-05     4.24648570e-05     0.00000000e+00    
           3.87918408e-05     4.23234924e-05     0.00000000e+00    
           3.68790497e-05     4.17045230e-05     0.00000000e+00    
           3.61114871e-05     4.12773697e-05     0.00000000e+00    
           3.54326949e-05     4.08066990e-05     0.00000000e+00    
           3.48312897e-05     4.01296020e-05     0.00000000e+00    
           3.43732063e-05     3.92909387e-05     0.00000000e+00    
           3.40931292e-05     3.82942380e-05     0.00000000e+00    
           3.40628612e-05     3.72885843e-05     0.00000000e+00    
           3.42740313e-05     3.65475680e-05     0.00000000e+00    
           3.47427886e-05     3.60894410e-05     0.00000000e+00    
           3.54300355e-05     3.58062971e-05     0.00000000e+00    
           3.62631690e-05     3.56537239e-05     0.00000000e+00    
           3.72319555e-05     3.56560813e-05     0.00000000e+00    
           4.66637939e-05     4.41799093e-05     0.00000000e+00    
           4.73629298e-05     4.45745864e-05     0.00000000e+00    
           4.78971560e-05     4.50358420e-05     0.00000000e+00    
           4.82025825e-05     4.54916299e-05     0.00000000e+00    
           4.83058830e-05     4.59283765e-05     0.00000000e+00    
           4.82195355e-05     4.63205324e-05     0.00000000e+00    
           4.79850496e-05     4.66260608e-05     0.00000000e+00    
           4.76400564e-05     4.68138896e-05     0.00000000e+00    
           4.72045140e-05     4.68894468e-05     0.00000000e+00    
           4.67425307e-05     4.68299731e-05     0.00000000e+00    
           4.56516464e-05     4.65984558e-05     0.00000000e+00    
           4.50643529e-05     4.63204451e-05     0.00000000e+00    
           4.45509468e-05     4.58962058e-05     0.00000000e+00    
           4.41660086e-05     4.53462126e-05     0.00000000e+00    
           4.39397481e-05     4.46550803e-05     0.00000000e+00    
           4.39493961e-05     4.39592040e-05     0.00000000e+00    
           4.41606426e-05     4.35255497e-05     0.00000000e+00    
           4.45245096e-05     4.34125322e-05     0.00000000e+00    
           4.49224608e-05     4.35352158e-05     0.00000000e+00    
           4.53673456e-05     4.37149829e-05     0.00000000e+00    
           1.78868358e-05     1.79695689e-05     0.00000000e+00    
           1.80569787e-05     1.80335774e-05     0.00000000e+00    
           1.81953856e-05     1.81107625e-05     0.00000000e+00    
           1.84049350e-05     1.83942520e-05     0.00000000e+00    
           1.86015841e-05     1.89474849e-05     0.00000000e+00    
           1.85497083e-05     1.93213873e-05     0.00000000e+00    
           1.82938238e-05     1.90944356e-05     0.00000000e+00    
           1.79571707e-05     1.87444675e-05     0.00000000e+00    
           1.76246085e-05     1.83987358e-05     0.00000000e+00    
           1.73062836e-05     1.80598054e-05     0.00000000e+00    
           1.69775521e-05     1.77303009e-05     0.00000000e+00    
           1.64456578e-05     1.71217762e-05     0.00000000e+00    
           1.63980840e-05     1.70380627e-05     0.00000000e+00    
           1.64124267e-05     1.70447966e-05     0.00000000e+00    
           1.63305776e-05     1.69986470e-05     0.00000000e+00    
           1.62438555e-05     1.69529103e-05     0.00000000e+00    
           1.61888311e-05     1.69452214e-05     0.00000000e+00    
           1.62447977e-05     1.69594732e-05     0.00000000e+00    
           1.63900113e-05     1.70188305e-05     0.00000000e+00    
           1.66177306e-05     1.71563897e-05     0.00000000e+00    
           1.68953375e-05     1.73204226e-05     0.00000000e+00    
           1.72189339e-05     1.75345667e-05     0.00000000e+00    
           1.05342097e-05     1.04654246e-05     0.00000000e+00    
           1.00884427e-05     9.95154551e-06     0.00000000e+00    
           9.80526602e-06     9.28493955e-06     0.00000000e+00    
           9.71147711e-06     8.46896091e-06     0.00000000e+00    
           9.86964733e-06     7.71408577e-06     0.00000000e+00    
           1.03462708e-05     7.19765421e-06     0.00000000e+00    
           1.09954890e-05     7.01835506e-06     0.00000000e+00    
           1.16868814e-05     7.08936022e-06     0.00000000e+00    
           1.23530108e-05     7.22477625e-06     0.00000000e+00    
           1.35816426e-05     7.65327968e-06     0.00000000e+00    
           1.42127028e-05     8.02582690e-06     0.00000000e+00    
           1.48565232e-05     8.62809975e-06     0.00000000e+00    
           1.53943838e-05     9.37975710e-06     0.00000000e+00    
           1.58293569e-05     1.02031108e-05     0.00000000e+00    
           1.59987649e-05     1.08749073e-05     0.00000000e+00    
           1.59421652e-05     1.13041542e-05     0.00000000e+00    
           1.56634014e-05     1.15971679e-05     0.00000000e+00    
           1.52184102e-05     1.18146891e-05     0.00000000e+00    
           1.39289768e-05     1.19159331e-05     0.00000000e+00    
           1.31429051e-05     1.17155496e-05     0.00000000e+00    
           1.23236441e-05     1.13993983e-05     0.00000000e+00    
           1.15726889e-05     1.10537294e-05     0.00000000e+00    
           2.51834535e-05     2.18083242e-05     0.00000000e+00    
           2.55366649e-05     2.19902286e-05     0.00000000e+00    
           2.59167900e-05     2.21842020e-05     0.00000000e+00    
           2.63176353e-05     2.25049025e-05     0.00000000e+00    
           2.66019833e-05     2.29146535e-05     0.00000000e+00    
           2.67330306e-05     2.33810460e-05     0.00000000e+00    
           2.67240757e-05     2.38679622e-05     0.00000000e+00    
           2.65810650e-05     2.41799262e-05     0.00000000e+00    
           2.63377151e-05     2.42920905e-05     0.00000000e+00    
           2.60003344e-05     2.43223476e-05     0.00000000e+00    
           2.55501545e-05     2.42642818e-05     0.00000000e+00    
           2.43732648e-05     2.38640423e-05     0.00000000e+00    
           2.37876338e-05     2.34224717e-05     0.00000000e+00    
           2.32576585e-05     2.28474109e-05     0.00000000e+00    
           2.28298213e-05     2.21508053e-05     0.00000000e+00    
           2.25593249e-05     2.14459305e-05     0.00000000e+00    
           2.24634587e-05     2.09567716e-05     0.00000000e+00    
           2.25911917e-05     2.07415214e-05     0.00000000e+00    
           2.29120760e-05     2.06864897e-05     0.00000000e+00    
           2.33331684e-05     2.07092271e-05     0.00000000e+00    