<?xml version="1.0"?>
<VTKFile type="UnstructuredGrid" version="0.1">
  <UnstructuredGrid>
    <Piece NumberOfPoints="1034" NumberOfCells="1614">
      <Points>
        <DataArray type="Float32" NumberOfComponents="3">
           5.21582007e-01     5.11657000e-01     0.00000000e+00    
           5.07319987e-01     5.11657000e-01     0.00000000e+00    
           4.65243995e-01     5.17907977e-01     0.00000000e+00    
           4.65243995e-01     5.04921973e-01     0.00000000e+00    
           4.75246996e-01     5.11415005e-01     0.00000000e+00    
           5.33852994e-01     5.04921973e-01     0.00000000e+00    
           5.33852994e-01     5.17907977e-01     0.00000000e+00    
           4.83779997e-01     5.34618974e-01     0.00000000e+00    
           4.68984991e-01     5.34618974e-01     0.00000000e+00    
           4.76381987e-01     5.23841977e-01     0.00000000e+00    
           4.68984991e-01     4.66010004e-01     0.00000000e+00    
           4.83779997e-01     4.66010004e-01     0.00000000e+00    
           4.99920011e-01     5.34618974e-01     0.00000000e+00    
           4.89203990e-01     5.34618974e-01     0.00000000e+00    
           4.94562000e-01     5.22280991e-01     0.00000000e+00    
           4.89203990e-01     4.66010004e-01     0.00000000e+00    
           4.99920011e-01     4.66010004e-01     0.00000000e+00    
           5.32517016e-01     4.74112004e-01     0.00000000e+00    
           5.17961025e-01     4.74112004e-01     0.00000000e+00    
           5.33852994e-01     5.19801974e-01     0.00000000e+00    
           5.33852994e-01     5.29603004e-01     0.00000000e+00    
           5.19536972e-01     5.24702013e-01     0.00000000e+00    
           4.65243995e-01     5.29603004e-01     0.00000000e+00    
           4.65243995e-01     5.19801974e-01     0.00000000e+00    
           4.92487997e-01     5.17117977e-01     0.00000000e+00    
           4.76904988e-01     5.17117977e-01     0.00000000e+00    
           5.17996013e-01     5.27033985e-01     0.00000000e+00    
           5.04473984e-01     5.27033985e-01     0.00000000e+00    
           5.08446991e-01     4.83435005e-01     0.00000000e+00    
           4.94414002e-01     4.83435005e-01     0.00000000e+00    
           4.65243995e-01     4.83101994e-01     0.00000000e+00    
           4.65243995e-01     4.74415004e-01     0.00000000e+00    
           4.78336990e-01     4.78758007e-01     0.00000000e+00    
           5.33852994e-01     4.74415004e-01     0.00000000e+00    
           5.33852994e-01     4.83101994e-01     0.00000000e+00    
           4.80668008e-01     4.95810986e-01     0.00000000e+00    
           4.66084987e-01     4.95810986e-01     0.00000000e+00    
           4.93930012e-01     4.79214013e-01     0.00000000e+00    
           4.78967011e-01     4.79214013e-01     0.00000000e+00    
           5.09284973e-01     4.97658014e-01     0.00000000e+00    
           4.95503992e-01     4.97658014e-01     0.00000000e+00    
           5.33011973e-01     5.01751006e-01     0.00000000e+00    
           5.17829001e-01     5.01751006e-01     0.00000000e+00    
           4.95451003e-01     5.00564992e-01     0.00000000e+00    
           4.80922014e-01     5.00564992e-01     0.00000000e+00    
           5.25367022e-01     4.88312006e-01     0.00000000e+00    
           5.09521008e-01     4.88312006e-01     0.00000000e+00    
           4.65243995e-01     5.34618974e-01     0.00000000e+00    
           4.65243995e-01     4.66010004e-01     0.00000000e+00    
           5.33852994e-01     4.66010004e-01     0.00000000e+00    
           5.33852994e-01     5.34618974e-01     0.00000000e+00    
           5.21338999e-01     5.13502657e-01     0.00000000e+00    
           5.20626605e-01     5.15222490e-01     0.00000000e+00    
           5.19493401e-01     5.16699374e-01     0.00000000e+00    
           5.18016517e-01     5.17832637e-01     0.00000000e+00    
           5.16296625e-01     5.18545032e-01     0.00000000e+00    
           5.14451027e-01     5.18787980e-01     0.00000000e+00    
           5.12605369e-01     5.18545032e-01     0.00000000e+00    
           5.10885477e-01     5.17832637e-01     0.00000000e+00    
           5.09408593e-01     5.16699374e-01     0.00000000e+00    
           5.08275390e-01     5.15222490e-01     0.00000000e+00    
           5.07562995e-01     5.13502657e-01     0.00000000e+00    
           5.07562995e-01     5.09811342e-01     0.00000000e+00    
           5.08275390e-01     5.08091509e-01     0.00000000e+00    
           5.09408593e-01     5.06614625e-01     0.00000000e+00    
           5.10885477e-01     5.05481362e-01     0.00000000e+00    
           5.12605369e-01     5.04768968e-01     0.00000000e+00    
           5.14451027e-01     5.04526019e-01     0.00000000e+00    
           5.16296625e-01     5.04768968e-01     0.00000000e+00    
           5.18016517e-01     5.05481362e-01     0.00000000e+00    
           5.19493401e-01     5.06614625e-01     0.00000000e+00    
           5.20626605e-01     5.08091509e-01     0.00000000e+00    
           5.21338999e-01     5.09811342e-01     0.00000000e+00    
           4.66931671e-01     5.04409373e-01     0.00000000e+00    
           4.68693614e-01     5.04328012e-01     0.00000000e+00    
           4.70421344e-01     5.04682958e-01     0.00000000e+00    
           4.72008497e-01     5.05452335e-01     0.00000000e+00    
           4.73357379e-01     5.06588817e-01     0.00000000e+00    
           4.74384934e-01     5.08022368e-01     0.00000000e+00    
           4.75027919e-01     5.09664834e-01     0.00000000e+00    
           4.75028187e-01     5.13165236e-01     0.00000000e+00    
           4.74385172e-01     5.14807761e-01     0.00000000e+00    
           4.73357558e-01     5.16241372e-01     0.00000000e+00    
           4.72008646e-01     5.17377913e-01     0.00000000e+00    
           4.70421433e-01     5.18147290e-01     0.00000000e+00    
           4.68693614e-01     5.18502235e-01     0.00000000e+00    
           4.66931641e-01     5.18420875e-01     0.00000000e+00    
           5.32303810e-01     5.16964078e-01     0.00000000e+00    
           5.31043947e-01     5.15658796e-01     0.00000000e+00    
           5.30155540e-01     5.14077127e-01     0.00000000e+00    
           5.29696345e-01     5.12322068e-01     0.00000000e+00    
           5.29696345e-01     5.10507941e-01     0.00000000e+00    
           5.30155540e-01     5.08752882e-01     0.00000000e+00    
           5.31043947e-01     5.07171214e-01     0.00000000e+00    
           5.32303810e-01     5.05865932e-01     0.00000000e+00    
           4.68517244e-01     5.32760799e-01     0.00000000e+00    
           4.68509018e-01     5.30844629e-01     0.00000000e+00    
           4.68960851e-01     5.28982460e-01     0.00000000e+00    
           4.69846308e-01     5.27283132e-01     0.00000000e+00    
           4.71113682e-01     5.25845945e-01     0.00000000e+00    
           4.72688884e-01     5.24754822e-01     0.00000000e+00    
           4.74479854e-01     5.24073541e-01     0.00000000e+00    
           4.78284091e-01     5.24073601e-01     0.00000000e+00    
           4.80075032e-01     5.24754822e-01     0.00000000e+00    
           4.81650203e-01     5.25845885e-01     0.00000000e+00    
           4.82917547e-01     5.27283013e-01     0.00000000e+00    
           4.83803004e-01     5.28982282e-01     0.00000000e+00    
           4.84254897e-01     5.30844331e-01     0.00000000e+00    
           4.84246761e-01     5.32760441e-01     0.00000000e+00    
           4.82887864e-01     4.67691004e-01     0.00000000e+00    
           4.81620818e-01     4.69110936e-01     0.00000000e+00    
           4.80051905e-01     4.70188022e-01     0.00000000e+00    
           4.78271484e-01     4.70860153e-01     0.00000000e+00    
           4.76382166e-01     4.71088618e-01     0.00000000e+00    
           4.74492878e-01     4.70860243e-01     0.00000000e+00    
           4.72712427e-01     4.70188200e-01     0.00000000e+00    
           4.71143454e-01     4.69111174e-01     0.00000000e+00    
           4.69876349e-01     4.67691302e-01     0.00000000e+00    
           4.88103986e-01     5.33086061e-01     0.00000000e+00    
           4.87431526e-01     5.31323195e-01     0.00000000e+00    
           4.87231195e-01     5.29447019e-01     0.00000000e+00    
           4.87516224e-01     5.27581930e-01     0.00000000e+00    
           4.88267750e-01     5.25851250e-01     0.00000000e+00    
           4.89436030e-01     5.24369657e-01     0.00000000e+00    
           4.90943670e-01     5.23235261e-01     0.00000000e+00    
           4.92690891e-01     5.22523046e-01     0.00000000e+00    
           4.96432930e-01     5.22523701e-01     0.00000000e+00    
           4.98180002e-01     5.23235798e-01     0.00000000e+00    
           4.99687493e-01     5.24370134e-01     0.00000000e+00    
           5.00855684e-01     5.25851607e-01     0.00000000e+00    
           5.01607120e-01     5.27582109e-01     0.00000000e+00    
           5.01892149e-01     5.29447079e-01     0.00000000e+00    
           5.01691818e-01     5.31323016e-01     0.00000000e+00    
           5.01019418e-01     5.33085763e-01     0.00000000e+00    
           4.98371124e-01     4.67269689e-01     0.00000000e+00    
           4.96539861e-01     4.68064904e-01     0.00000000e+00    
           4.94562000e-01     4.68336672e-01     0.00000000e+00    
           4.92584139e-01     4.68064904e-01     0.00000000e+00    
           4.90752876e-01     4.67269689e-01     0.00000000e+00    
           5.32269001e-01     4.75995690e-01     0.00000000e+00    
           5.31541944e-01     4.77750987e-01     0.00000000e+00    
           5.30385315e-01     4.79258329e-01     0.00000000e+00    
           5.28877974e-01     4.80414927e-01     0.00000000e+00    
[...]
      <PointData>
        <DataArray type="Float32" Name="Displacement" NumberOfComponents="3">
           1.71803660e-03     7.84621225e-04     0.00000000e+00    
           1.69668649e-03     7.57396163e-04     0.00000000e+00    
           3.19437640e-05     7.78977061e-04     0.00000000e+00    
           3.93874652e-05     7.62460928e-04     0.00000000e+00    
           5.16020082e-05     7.76572560e-04     0.00000000e+00    
           2.33938755e-03     7.62460928e-04     0.00000000e+00    
           2.33194372e-03     7.78977061e-04     0.00000000e+00    
           3.50021030e-04     1.13854499e-03     0.00000000e+00    
           3.27807997e-04     1.13679876e-03     0.00000000e+00    
           3.40895582e-04     1.12277863e-03     0.00000000e+00    
           3.27807997e-04    -1.32012647e-05     0.00000000e+00    
           3.50021030e-04    -1.14550403e-05     0.00000000e+00    
           8.70351156e-04     1.08226109e-03     0.00000000e+00    
           8.52921105e-04     1.09104102e-03     0.00000000e+00    
           8.51366902e-04     1.07010826e-03     0.00000000e+00    
           8.52921105e-04    -5.89589508e-05     0.00000000e+00    
           8.70351156e-04    -6.77389544e-05     0.00000000e+00    
           2.05976306e-03     1.59455565e-04     0.00000000e+00    
           2.03847140e-03     1.53663117e-04     0.00000000e+00    
           2.11844849e-03     9.92280315e-04     0.00000000e+00    
           2.11706897e-03     1.00506551e-03     0.00000000e+00    
           2.09651049e-03     9.96400951e-04     0.00000000e+00    
          -1.82931064e-04     1.00506551e-03     0.00000000e+00    
          -1.81551499e-04     9.92280315e-04     0.00000000e+00    
           5.75512240e-04     8.92843644e-04     0.00000000e+00    
           5.52558398e-04     8.97898513e-04     0.00000000e+00    
           1.61220774e-03     9.97645315e-04     0.00000000e+00    
           1.59254496e-03     9.94526083e-04     0.00000000e+00    
           1.18376664e-03     3.75642645e-04     0.00000000e+00    
           1.16356020e-03     3.74215742e-04     0.00000000e+00    
           1.90490493e-04     2.16953529e-04     0.00000000e+00    
           2.02800467e-04     2.06937926e-04     0.00000000e+00    
           2.16022629e-04     2.29371901e-04     0.00000000e+00    
           2.50280043e-03     2.06937926e-04     0.00000000e+00    
           2.49049044e-03     2.16953529e-04     0.00000000e+00    
           2.27990851e-04     5.44569979e-04     0.00000000e+00    
           2.06831333e-04     5.24654111e-04     0.00000000e+00    
           6.22216321e-04     2.51776248e-04     0.00000000e+00    
           6.00724830e-04     2.43592847e-04     0.00000000e+00    
           1.22155284e-03     4.85721946e-04     0.00000000e+00    
           1.20163453e-03     5.23574767e-04     0.00000000e+00    
           2.03054678e-03     6.16233505e-04     0.00000000e+00    
           2.00798456e-03     6.13774464e-04     0.00000000e+00    
           6.75074232e-04     6.20237435e-04     0.00000000e+00    
           6.54355856e-04     6.23372558e-04     0.00000000e+00    
           1.83322281e-03     4.05970466e-04     0.00000000e+00    
           1.80987024e-03     4.14178066e-04     0.00000000e+00    
           0.00000000e+00     1.15000003e-03     0.00000000e+00    
           0.00000000e+00     0.00000000e+00     0.00000000e+00    
           2.30000005e-03     0.00000000e+00     0.00000000e+00    
           2.30000005e-03     1.15000003e-03     0.00000000e+00    
           1.71410409e-03     7.86850462e-04     0.00000000e+00    
           1.70992105e-03     7.87582307e-04     0.00000000e+00    
           1.70552451e-03     7.87567056e-04     0.00000000e+00    
           1.70115766e-03     7.86943652e-04     0.00000000e+00    
           1.69675611e-03     7.84972333e-04     0.00000000e+00    
           1.69290521e-03     7.81630981e-04     0.00000000e+00    
           1.69069227e-03     7.77554524e-04     0.00000000e+00    
           1.68959948e-03     7.73274631e-04     0.00000000e+00    
           1.68929657e-03     7.68658414e-04     0.00000000e+00    
           1.69067492e-03     7.63967051e-04     0.00000000e+00    
           1.69317378e-03     7.60175753e-04     0.00000000e+00    
           1.70051353e-03     7.55519606e-04     0.00000000e+00    
           1.70493696e-03     7.54804933e-04     0.00000000e+00    
           1.70926517e-03     7.55022746e-04     0.00000000e+00    
           1.71372097e-03     7.55764777e-04     0.00000000e+00    
           1.71828945e-03     7.57931441e-04     0.00000000e+00    
           1.72255118e-03     7.61423318e-04     0.00000000e+00    
           1.72524492e-03     7.66230049e-04     0.00000000e+00    
           1.72596297e-03     7.71287654e-04     0.00000000e+00    
           1.72506773e-03     7.75368244e-04     0.00000000e+00    
           1.72323396e-03     7.78815767e-04     0.00000000e+00    
           1.72082835e-03     7.81900308e-04     0.00000000e+00    
           4.28369312e-05     7.61535775e-04     0.00000000e+00    
           4.63854449e-05     7.62500858e-04     0.00000000e+00    
           4.87853940e-05     7.64188357e-04     0.00000000e+00    
           5.06732758e-05     7.66150246e-04     0.00000000e+00    
           5.20986723e-05     7.68705562e-04     0.00000000e+00    
           5.27538432e-05     7.71460822e-04     0.00000000e+00    
           5.24233983e-05     7.74242275e-04     0.00000000e+00    
           5.01700160e-05     7.78465183e-04     0.00000000e+00    
           4.85289747e-05     7.80012982e-04     0.00000000e+00    
           4.64167133e-05     7.81543204e-04     0.00000000e+00    
           4.39357827e-05     7.82596879e-04     0.00000000e+00    
           4.09875247e-05     7.83117663e-04     0.00000000e+00    
           3.74458978e-05     7.83052703e-04     0.00000000e+00    
           3.40962142e-05     7.81104958e-04     0.00000000e+00    
           2.33073696e-03     7.76913424e-04     0.00000000e+00    
           2.32982007e-03     7.74691522e-04     0.00000000e+00    
           2.32946058e-03     7.71784049e-04     0.00000000e+00    
           2.32990109e-03     7.69008533e-04     0.00000000e+00    
           2.33135885e-03     7.66444893e-04     0.00000000e+00    
           2.33321032e-03     7.64642551e-04     0.00000000e+00    
           2.33519822e-03     7.63711345e-04     0.00000000e+00    
           2.33718543e-03     7.63151911e-04     0.00000000e+00    
           3.27489572e-04     1.13412773e-03     0.00000000e+00    
           3.27844871e-04     1.13181490e-03     0.00000000e+00    
           3.28654598e-04     1.12969161e-03     0.00000000e+00    
           3.29854345e-04     1.12752942e-03     0.00000000e+00    
           3.31703894e-04     1.12558925e-03     0.00000000e+00    
           3.34248733e-04     1.12386607e-03     0.00000000e+00    
           3.37531848e-04     1.12270354e-03     0.00000000e+00    
           3.44110653e-04     1.12391391e-03     0.00000000e+00    
           3.46185901e-04     1.12522079e-03     0.00000000e+00    
           3.47995490e-04     1.12665375e-03     0.00000000e+00    
           3.49552283e-04     1.12835329e-03     0.00000000e+00    
           3.50737770e-04     1.13096554e-03     0.00000000e+00    
           3.51080729e-04     1.13357592e-03     0.00000000e+00    
           3.50898539e-04     1.13605661e-03     0.00000000e+00    
           3.48649221e-04    -9.30679653e-06     0.00000000e+00    
           3.46894521e-04    -7.29327803e-06     0.00000000e+00    
           3.44303524e-04    -5.66323206e-06     0.00000000e+00    
           3.40837287e-04    -4.37198241e-06     0.00000000e+00    
           3.37472069e-04    -4.73430873e-06     0.00000000e+00    
           3.34754353e-04    -5.58809643e-06     0.00000000e+00    
           3.32519267e-04    -6.65001426e-06     0.00000000e+00    
           3.30508541e-04    -8.30195222e-06     0.00000000e+00    
           3.28674796e-04    -1.06414864e-05     0.00000000e+00    
           8.50384822e-04     1.08959700e-03     0.00000000e+00    
           8.48225667e-04     1.08767289e-03     0.00000000e+00    
           8.46601615e-04     1.08542247e-03     0.00000000e+00    
           8.45479604e-04     1.08259171e-03     0.00000000e+00    
           8.45501432e-04     1.07985572e-03     0.00000000e+00    
           8.45852890e-04     1.07754220e-03     0.00000000e+00    
           8.46706738e-04     1.07517559e-03     0.00000000e+00    
           8.48251686e-04     1.07256975e-03     0.00000000e+00    
           8.55257793e-04     1.06887263e-03     0.00000000e+00    
           8.58883315e-04     1.06915110e-03     0.00000000e+00    
           8.62010173e-04     1.07010617e-03     0.00000000e+00    
           8.64525151e-04     1.07128895e-03     0.00000000e+00    
           8.66472197e-04     1.07266835e-03     0.00000000e+00    
           8.68306961e-04     1.07429875e-03     0.00000000e+00    
           8.69731477e-04     1.07650715e-03     0.00000000e+00    
           8.70414253e-04     1.07917155e-03     0.00000000e+00    
           8.69345735e-04    -6.44861066e-05     0.00000000e+00    
           8.67085124e-04    -6.13376396e-05     0.00000000e+00    
           8.63676483e-04    -5.88195762e-05     0.00000000e+00    
           8.59674474e-04    -5.79609332e-05     0.00000000e+00    
           8.56225553e-04    -5.81159620e-05     0.00000000e+00    
           2.05853488e-03     1.61160831e-04     0.00000000e+00    
           2.05717678e-03     1.62405995e-04     0.00000000e+00    
           2.05561426e-03     1.63793316e-04     0.00000000e+00    
           2.05302658e-03     1.65678241e-04     0.00000000e+00    
           2.04947079e-03     1.66667756e-04     0.00000000e+00    
           2.04599253e-03     1.66235215e-04     0.00000000e+00    
           2.04324885e-03     1.64943878e-04     0.00000000e+00    
           2.04134826e-03     1.63429344e-04     0.00000000e+00    
           2.03995034e-03     1.61696822e-04     0.00000000e+00    
           2.03861250e-03     1.59380201e-04     0.00000000e+00    
           2.03807862e-03     1.56577909e-04     0.00000000e+00    
           2.03950703e-03     1.51211309e-04     0.00000000e+00    
           2.04117969e-03     1.48807332e-04     0.00000000e+00    
           2.04342185e-03     1.46817052e-04     0.00000000e+00    
           2.04639626e-03     1.45466329e-04     0.00000000e+00    
           2.04973505e-03     1.45163605e-04     0.00000000e+00    
           2.05272972e-03     1.45705024e-04     0.00000000e+00    
           2.05543754e-03     1.46850754e-04     0.00000000e+00    
           2.05796747e-03     1.48576699e-04     0.00000000e+00    
           2.05982267e-03     1.51422792e-04     0.00000000e+00    
           2.06063222e-03     1.54471083e-04     0.00000000e+00    
           2.06058729e-03     1.57204573e-04     0.00000000e+00    
           2.11493764e-03     1.00707461e-03     0.00000000e+00    
           2.11226544e-03     1.00867532e-03     0.00000000e+00    
           2.10894505e-03     1.00969686e-03     0.00000000e+00    
           2.10538669e-03     1.00945646e-03     0.00000000e+00    
           2.10210215e-03     1.00842852e-03     0.00000000e+00    
           2.09933426e-03     1.00642536e-03     0.00000000e+00    
           2.09757430e-03     1.00358494e-03     0.00000000e+00    
           2.09660642e-03     1.00077805e-03     0.00000000e+00    
           2.09639105e-03     9.98409814e-04     0.00000000e+00    
           2.09697988e-03     9.94278467e-04     0.00000000e+00    
           2.09806650e-03     9.92331305e-04     0.00000000e+00    
           2.09962181e-03     9.90378554e-04     0.00000000e+00    
           2.10199226e-03     9.88325803e-04     0.00000000e+00    
           2.10485072e-03     9.86941275e-04     0.00000000e+00    
           2.10871990e-03     9.86339175e-04     0.00000000e+00    
           2.11221003e-03     9.87212872e-04     0.00000000e+00    
           2.11493135e-03     9.88771673e-04     0.00000000e+00    
           2.11683614e-03     9.90414061e-04     0.00000000e+00    
          -1.80567265e-04     9.94441565e-04     0.00000000e+00    
          -1.80041985e-04     9.96709801e-04     0.00000000e+00    
          -1.80164832e-04     9.98952542e-04     0.00000000e+00    
          -1.80738338e-04     1.00118038e-03     0.00000000e+00    
          -1.81652576e-04     1.00303511e-03     0.00000000e+00    
           5.75749902e-04     8.95442383e-04     0.00000000e+00    
           5.75432670e-04     8.98070575e-04     0.00000000e+00    
           5.74218342e-04     9.00118437e-04     0.00000000e+00    
           5.73031313e-04     9.01879102e-04     0.00000000e+00    
           5.71189448e-04     9.03706823e-04     0.00000000e+00    
           5.68148447e-04     9.05705674e-04     0.00000000e+00    
           5.64577000e-04     9.05989204e-04     0.00000000e+00    
           5.61810855e-04     9.05638502e-04     0.00000000e+00    
           5.59354550e-04     9.05138091e-04     0.00000000e+00    
           5.57063613e-04     9.04278946e-04     0.00000000e+00    
           5.54809812e-04     9.02567757e-04     0.00000000e+00    
           5.53385355e-04     9.00130253e-04     0.00000000e+00    
           5.52239537e-04     8.95448960e-04     0.00000000e+00    
           5.52385871e-04     8.93121993e-04     0.00000000e+00    
           5.53073012e-04     8.90390016e-04     0.00000000e+00    
           5.54664060e-04     8.87675735e-04     0.00000000e+00    
           5.57167048e-04     8.85484158e-04     0.00000000e+00    
           5.60551358e-04     8.84142995e-04     0.00000000e+00    
           5.63353999e-04     8.83795263e-04     0.00000000e+00    
           5.66069037e-04     8.83798755e-04     0.00000000e+00    
           5.68925054e-04     8.84490379e-04     0.00000000e+00    
           5.71375946e-04     8.86088936e-04     0.00000000e+00    
           5.73374506e-04     8.88180570e-04     0.00000000e+00    
           5.74768987e-04     8.90472787e-04     0.00000000e+00    
           1.61163241e-03     9.99688869e-04     0.00000000e+00    
           1.61021703e-03     1.00177876e-03     0.00000000e+00    
           1.60811713e-03     1.00365968e-03     0.00000000e+00    
           1.60544470e-03     1.00506423e-03     0.00000000e+00    
           1.60217180e-03     1.00555818e-03     0.00000000e+00    
           1.59888039e-03     1.00504560e-03     0.00000000e+00    
           1.59592286e-03     1.00356026e-03     0.00000000e+00    
           1.59388152e-03     1.00134010e-03     0.00000000e+00    
           1.59255660e-03     9.98892705e-04     0.00000000e+00    
           1.59231026e-03     9.96520626e-04     0.00000000e+00    
           1.59313250e-03     9.92592075e-04     0.00000000e+00    
           1.59431621e-03     9.90438857e-04     0.00000000e+00    
           1.59633881e-03     9.88360378e-04     0.00000000e+00    
           1.59937527e-03     9.86313331e-04     0.00000000e+00    
           1.60316692e-03     9.86041501e-04     0.00000000e+00    
           1.60613400e-03     9.86791216e-04     0.00000000e+00    
           1.60858443e-03     9.87969455e-04     0.00000000e+00    
           1.61103974e-03     9.90040717e-04     0.00000000e+00    
           1.61219470e-03     9.93060530e-04     0.00000000e+00    
           1.61243102e-03     9.95584298e-04     0.00000000e+00    
           1.18340133e-03     3.77484626e-04     0.00000000e+00    
           1.18236372e-03     3.79360077e-04     0.00000000e+00    
           1.18108361e-03     3.81767662e-04     0.00000000e+00    
           1.17833167e-03     3.83759936e-04     0.00000000e+00    
           1.17571908e-03     3.84507905e-04     0.00000000e+00    
           1.17350812e-03     3.84684216e-04     0.00000000e+00    
           1.17097504e-03     3.84434359e-04     0.00000000e+00    
           1.16779993e-03     3.83438863e-04     0.00000000e+00    
           1.16530596e-03     3.80820100e-04     0.00000000e+00    
           1.16408558e-03     3.78366414e-04     0.00000000e+00    
           1.16355915e-03     3.76183452e-04     0.00000000e+00    
           1.16395520e-03     3.72602488e-04     0.00000000e+00    
           1.16466812e-03     3.70913593e-04     0.00000000e+00    
           1.16571749e-03     3.68937181e-04     0.00000000e+00    
           1.16760808e-03     3.67064291e-04     0.00000000e+00    
           1.17035408e-03     3.65478889e-04     0.00000000e+00    
           1.17396016e-03     3.64662963e-04     0.00000000e+00    
           1.17731385e-03     3.65406799e-04     0.00000000e+00    
           1.18016033e-03     3.67083441e-04     0.00000000e+00    
           1.18221180e-03     3.69360379e-04     0.00000000e+00    
           1.18333928e-03     3.71509668e-04     0.00000000e+00    
           1.18387525e-03     3.73686868e-04     0.00000000e+00    
           2.06076365e-04     2.06594763e-04     0.00000000e+00    
           2.09721460e-04     2.06491546e-04     0.00000000e+00    
           2.13606036e-04     2.07659759e-04     0.00000000e+00    
           2.16963381e-04     2.10309430e-04     0.00000000e+00    
           2.19014095e-04     2.13269115e-04     0.00000000e+00    
           2.20147980e-04     2.16420682e-04     0.00000000e+00    
           2.20850285e-04     2.20023372e-04     0.00000000e+00    
           2.20198592e-04     2.24170784e-04     0.00000000e+00    
           2.18366578e-04     2.27312703e-04     0.00000000e+00    
           2.13439474e-04     2.30909412e-04     0.00000000e+00    
           2.10657279e-04     2.32171646e-04     0.00000000e+00    
           2.07392339e-04     2.33335653e-04     0.00000000e+00    
           2.03733376e-04     2.33792685e-04     0.00000000e+00    
           1.99729853e-04     2.32811057e-04     0.00000000e+00    
           1.96479770e-04     2.30870777e-04     0.00000000e+00    
           1.93636297e-04     2.28344084e-04     0.00000000e+00    
           1.91544648e-04     2.24813513e-04     0.00000000e+00    
           1.90394087e-04     2.20903748e-04     0.00000000e+00    
           2.49174517e-03     2.13289430e-04     0.00000000e+00    
           2.49388255e-03     2.10284838e-04     0.00000000e+00    
           2.49677221e-03     2.08342375e-04     0.00000000e+00    
           2.49980763e-03     2.07437828e-04     0.00000000e+00    
           2.24989810e-04     5.46059455e-04     0.00000000e+00    
           2.21860479e-04     5.46780939e-04     0.00000000e+00    
           2.18749992e-04     5.47324191e-04     0.00000000e+00    
           2.15089574e-04     5.47406671e-04     0.00000000e+00    
           2.10983650e-04     5.46703755e-04     0.00000000e+00    
           2.07360950e-04     5.44699375e-04     0.00000000e+00    
           2.04658441e-04     5.41481073e-04     0.00000000e+00    
           2.03204807e-04     5.38124761e-04     0.00000000e+00    
           2.02512179e-04     5.34389226e-04     0.00000000e+00    
           2.02868177e-04     5.30666613e-04     0.00000000e+00    
           2.04508498e-04     5.27211407e-04     0.00000000e+00    
           2.09505786e-04     5.22799033e-04     0.00000000e+00    
           2.12545012e-04     5.21219627e-04     0.00000000e+00    
           2.16213666e-04     5.20174217e-04     0.00000000e+00    
           2.20104761e-04     5.20340865e-04     0.00000000e+00    
           2.23879339e-04     5.21406473e-04     0.00000000e+00    
           2.27191878e-04     5.23542578e-04     0.00000000e+00    
           2.30073943e-04     5.26328222e-04     0.00000000e+00    
           2.31970946e-04     5.30217134e-04     0.00000000e+00    
           2.32733364e-04     5.34420891e-04     0.00000000e+00    