<?xml version="1.0"?>
<VTKFile type="UnstructuredGrid" version="0.1">
  <UnstructuredGrid>
    <Piece NumberOfPoints="1034" NumberOfCells="1614">
      <Points>
        <DataArray type="Float32" NumberOfComponents="3">
           5.21582007e-01     5.11657000e-01     0.00000000e+00    
           5.07319987e-01     5.11657000e-01     0.00000000e+00    
           4.65243995e-01     5.17907977e-01     0.00000000e+00    
           4.65243995e-01     5.04921973e-01     0.00000000e+00    
           4.75246996e-01     5.11415005e-01     0.00000000e+00    
           5.33852994e-01     5.04921973e-01     0.00000000e+00    
           5.33852994e-01     5.17907977e-01     0.00000000e+00    
           4.83779997e-01     5.34618974e-01     0.00000000e+00    
           4.68984991e-01     5.34618974e-01     0.00000000e+00    
           4.76381987e-01     5.23841977e-01     0.00000000e+00    
           4.68984991e-01     4.66010004e-01     0.00000000e+00    
           4.83779997e-01     4.66010004e-01     0.00000000e+00    
           4.99920011e-01     5.34618974e-01     0.00000000e+00    
           4.89203990e-01     5.34618974e-01     0.00000000e+00    
           4.94562000e-01     5.22280991e-01     0.00000000e+00    
           4.89203990e-01     4.66010004e-01     0.00000000e+00    
           4.99920011e-01     4.66010004e-01     0.00000000e+00    
           5.32517016e-01     4.74112004e-01     0.00000000e+00    
           5.17961025e-01     4.74112004e-01     0.00000000e+00    
           5.33852994e-01     5.19801974e-01     0.00000000e+00    
           5.33852994e-01     5.29603004e-01     0.00000000e+00    
           5.19536972e-01     5.24702013e-01     0.00000000e+00    
           4.65243995e-01     5.29603004e-01     0.00000000e+00    
           4.65243995e-01     5.19801974e-01     0.00000000e+00    
           4.92487997e-01     5.17117977e-01     0.00000000e+00    
           4.76904988e-01     5.17117977e-01     0.00000000e+00    
           5.17996013e-01     5.27033985e-01     0.00000000e+00    
           5.04473984e-01     5.27033985e-01     0.00000000e+00    
           5.08446991e-01     4.83435005e-01     0.00000000e+00    
           4.94414002e-01     4.83435005e-01     0.00000000e+00    
           4.65243995e-01     4.83101994e-01     0.00000000e+00    
           4.65243995e-01     4.74415004e-01     0.00000000e+00    
           4.78336990e-01     4.78758007e-01     0.00000000e+00    
           5.33852994e-01     4.74415004e-01     0.00000000e+00    
           5.33852994e-01     4.83101994e-01     0.00000000e+00    
           4.80668008e-01     4.95810986e-01     0.00000000e+00    
           4.66084987e-01     4.95810986e-01     0.00000000e+00    
           4.93930012e-01     4.79214013e-01     0.00000000e+00    
           4.78967011e-01     4.79214013e-01     0.00000000e+00    
           5.09284973e-01     4.97658014e-01     0.00000000e+00    
           4.95503992e-01     4.97658014e-01     0.00000000e+00    
           5.33011973e-01     5.01751006e-01     0.00000000e+00    
           5.17829001e-01     5.01751006e-01     0.00000000e+00    
           4.95451003e-01     5.00564992e-01     0.00000000e+00    
           4.80922014e-01     5.00564992e-01     0.00000000e+00    
           5.25367022e-01     4.88312006e-01     0.00000000e+00    
           5.09521008e-01     4.88312006e-01     0.00000000e+00    
           4.65243995e-01     5.34618974e-01     0.00000000e+00    
           4.65243995e-01     4.66010004e-01     0.00000000e+00    
           5.33852994e-01     4.66010004e-01     0.00000000e+00    
           5.33852994e-01     5.34618974e-01     0.00000000e+00    
           5.21338999e-01     5.13502657e-01     0.00000000e+00    
           5.20626605e-01     5.15222490e-01     0.00000000e+00    
           5.19493401e-01     5.16699374e-01     0.00000000e+00    
           5.18016517e-01     5.17832637e-01     0.00000000e+00    
           5.16296625e-01     5.18545032e-01     0.00000000e+00    
           5.14451027e-01     5.18787980e-01     0.00000000e+00    
           5.12605369e-01     5.18545032e-01     0.00000000e+00    
           5.10885477e-01     5.17832637e-01     0.00000000e+00    
           5.09408593e-01     5.16699374e-01     0.00000000e+00    
           5.08275390e-01     5.15222490e-01     0.00000000e+00    
           5.07562995e-01     5.13502657e-01     0.00000000e+00    
           5.07562995e-01     5.09811342e-01     0.00000000e+00    
           5.08275390e-01     5.08091509e-01     0.00000000e+00    
           5.09408593e-01     5.06614625e-01     0.00000000e+00    
           5.10885477e-01     5.05481362e-01     0.00000000e+00    
           5.12605369e-01     5.04768968e-01     0.00000000e+00    
           5.14451027e-01     5.04526019e-01     0.00000000e+00    
           5.16296625e-01     5.04768968e-01     0.00000000e+00    
           5.18016517e-01     5.05481362e-01     0.00000000e+00    
           5.19493401e-01     5.06614625e-01     0.00000000e+00    
           5.20626605e-01     5.08091509e-01     0.00000000e+00    
           5.21338999e-01     5.09811342e-01     0.00000000e+00    
           4.66931671e-01     5.04409373e-01     0.00000000e+00    
           4.68693614e-01     5.04328012e-01     0.00000000e+00    
           4.70421344e-01     5.04682958e-01     0.00000000e+00    
           4.72008497e-01     5.05452335e-01     0.00000000e+00    
           4.73357379e-01     5.06588817e-01     0.00000000e+00    
           4.74384934e-01     5.08022368e-01     0.00000000e+00    
           4.75027919e-01     5.09664834e-01     0.00000000e+00    
           4.75028187e-01     5.13165236e-01     0.00000000e+00    
           4.74385172e-01     5.14807761e-01     0.00000000e+00    
           4.73357558e-01     5.16241372e-01     0.00000000e+00    
           4.72008646e-01     5.17377913e-01     0.00000000e+00    
           4.70421433e-01     5.18147290e-01     0.00000000e+00    
           4.68693614e-01     5.18502235e-01     0.00000000e+00    
           4.66931641e-01     5.18420875e-01     0.00000000e+00    
           5.32303810e-01     5.16964078e-01     0.00000000e+00    
           5.31043947e-01     5.15658796e-01     0.00000000e+00    
           5.30155540e-01     5.14077127e-01     0.00000000e+00    
           5.29696345e-01     5.12322068e-01     0.00000000e+00    
           5.29696345e-01     5.10507941e-01     0.00000000e+00    
           5.30155540e-01     5.08752882e-01     0.00000000e+00    
           5.31043947e-01     5.07171214e-01     0.00000000e+00    
           5.32303810e-01     5.05865932e-01     0.00000000e+00    
           4.68517244e-01     5.32760799e-01     0.00000000e+00    
           4.68509018e-01     5.30844629e-01     0.00000000e+00    
           4.68960851e-01     5.28982460e-01     0.00000000e+00    
           4.69846308e-01     5.27283132e-01     0.00000000e+00    
           4.71113682e-01     5.25845945e-01     0.00000000e+00    
           4.72688884e-01     5.24754822e-01     0.00000000e+00    
           4.74479854e-01     5.24073541e-01     0.00000000e+00    
           4.78284091e-01     5.24073601e-01     0.00000000e+00    
           4.80075032e-01     5.24754822e-01     0.00000000e+00    
           4.81650203e-01     5.25845885e-01     0.00000000e+00    
           4.82917547e-01     5.27283013e-01     0.00000000e+00    
           4.83803004e-01     5.28982282e-01     0.00000000e+00    
           4.84254897e-01     5.30844331e-01     0.00000000e+00    
           4.84246761e-01     5.32760441e-01     0.00000000e+00    
           4.82887864e-01     4.67691004e-01     0.00000000e+00    
           4.81620818e-01     4.69110936e-01     0.00000000e+00    
           4.80051905e-01     4.70188022e-01     0.00000000e+00    
           4.78271484e-01     4.70860153e-01     0.00000000e+00    
           4.76382166e-01     4.71088618e-01     0.00000000e+00    
           4.74492878e-01     4.70860243e-01     0.00000000e+00    
           4.72712427e-01     4.70188200e-01     0.00000000e+00    
           4.71143454e-01     4.69111174e-01     0.00000000e+00    
           4.69876349e-01     4.67691302e-01     0.00000000e+00    
           4.88103986e-01     5.33086061e-01     0.00000000e+00    
           4.87431526e-01     5.31323195e-01     0.00000000e+00    
           4.87231195e-01     5.29447019e-01     0.00000000e+00    
           4.87516224e-01     5.27581930e-01     0.00000000e+00    
           4.88267750e-01     5.25851250e-01     0.00000000e+00    
           4.89436030e-01     5.24369657e-01     0.00000000e+00    
           4.90943670e-01     5.23235261e-01     0.00000000e+00    
           4.92690891e-01     5.22523046e-01     0.00000000e+00    
           4.96432930e-01     5.22523701e-01     0.00000000e+00    
           4.98180002e-01     5.23235798e-01     0.00000000e+00    
           4.99687493e-01     5.24370134e-01     0.00000000e+00    
           5.00855684e-01     5.25851607e-01     0.00000000e+00    
           5.01607120e-01     5.27582109e-01     0.00000000e+00    
           5.01892149e-01     5.29447079e-01     0.00000000e+00    
           5.01691818e-01     5.31323016e-01     0.00000000e+00    
           5.01019418e-01     5.33085763e-01     0.00000000e+00    
           4.98371124e-01     4.67269689e-01     0.00000000e+00    
           4.96539861e-01     4.68064904e-01     0.00000000e+00    
           4.94562000e-01     4.68336672e-01     0.00000000e+00    
           4.92584139e-01     4.68064904e-01     0.00000000e+00    
           4.90752876e-01     4.67269689e-01     0.00000000e+00    
           5.32269001e-01     4.75995690e-01     0.00000000e+00    
           5.31541944e-01     4.77750987e-01     0.00000000e+00    
           5.30385315e-01     4.79258329e-01     0.00000000e+00    
           5.28877974e-01     4.80414927e-01     0.00000000e+00    
[...]
      <PointData>
        <DataArray type="Float32" Name="Displacement" NumberOfComponents="3">
           7.99000380e-04     3.50490416e-04     0.00000000e+00    
           7.79678114e-04     3.45599081e-04     0.00000000e+00    
          -2.58617329e-05     3.67459172e-04     0.00000000e+00    
          -2.11639162e-05     3.51966155e-04     0.00000000e+00    
          -8.20359219e-06     3.65315616e-04     0.00000000e+00    
           1.02883612e-03     3.51966155e-04     0.00000000e+00    
           1.02413830e-03     3.67459172e-04     0.00000000e+00    
           1.49283427e-04     5.19829802e-04     0.00000000e+00    
           1.29065374e-04     5.23463474e-04     0.00000000e+00    
           1.37590701e-04     5.09609294e-04     0.00000000e+00    
           1.29065374e-04    -1.53651558e-06     0.00000000e+00    
           1.49283427e-04    -5.17021726e-06     0.00000000e+00    
           3.65056621e-04     4.76936577e-04     0.00000000e+00    
           3.48023314e-04     4.92739375e-04     0.00000000e+00    
           3.38033569e-04     4.73124819e-04     0.00000000e+00    
           3.48023314e-04    -3.22606393e-05     0.00000000e+00    
           3.65056621e-04    -4.80634226e-05     0.00000000e+00    
           9.48789064e-04     9.40638784e-05     0.00000000e+00    
           9.28668946e-04     9.05773049e-05     0.00000000e+00    
           9.53656563e-04     4.49749612e-04     0.00000000e+00    
           9.57867189e-04     4.61315853e-04     0.00000000e+00    
           9.34939017e-04     4.61097166e-04     0.00000000e+00    
          -9.21327883e-05     4.61315853e-04     0.00000000e+00    
          -9.63434650e-05     4.49749612e-04     0.00000000e+00    
           2.28420424e-04     4.24218510e-04     0.00000000e+00    
           2.07529811e-04     4.29148757e-04     0.00000000e+00    
           7.44594552e-04     4.58762050e-04     0.00000000e+00    
           7.24453770e-04     4.39023715e-04     0.00000000e+00    
           5.29863057e-04     1.77883965e-04     0.00000000e+00    
           5.09374018e-04     1.88272650e-04     0.00000000e+00    
           7.72172061e-05     1.03082813e-04     0.00000000e+00    
           7.98003020e-05     9.49419409e-05     0.00000000e+00    
           9.77420423e-05     1.03097947e-04     0.00000000e+00    
           1.12980034e-03     9.49419409e-05     0.00000000e+00    
           1.12721720e-03     1.03082813e-04     0.00000000e+00    
           8.88306822e-05     2.78453634e-04     0.00000000e+00    
           6.83831677e-05     2.54480372e-04     0.00000000e+00    
           2.64737319e-04     1.20707453e-04     0.00000000e+00    
           2.42709895e-04     1.15662748e-04     0.00000000e+00    
           5.58450178e-04     2.26804812e-04     0.00000000e+00    
           5.37937391e-04     2.53319216e-04     0.00000000e+00    
           9.11812473e-04     2.93558842e-04     0.00000000e+00    
           8.89582559e-04     2.93724617e-04     0.00000000e+00    
           2.86768132e-04     3.02881497e-04     0.00000000e+00    
           2.65540177e-04     3.00011161e-04     0.00000000e+00    
           8.06783966e-04     2.06251192e-04     0.00000000e+00    
           7.84243515e-04     1.95958593e-04     0.00000000e+00    
           0.00000000e+00     5.24999981e-04     0.00000000e+00    
           0.00000000e+00     0.00000000e+00     0.00000000e+00    
           1.04999996e-03     0.00000000e+00     0.00000000e+00    
           1.04999996e-03     5.24999981e-04     0.00000000e+00    
           7.97794433e-04     3.53381329e-04     0.00000000e+00    
           7.96438660e-04     3.55338154e-04     0.00000000e+00    
           7.94593943e-04     3.56776174e-04     0.00000000e+00    
           7.92282983e-04     3.57607729e-04     0.00000000e+00    
           7.89418234e-04     3.57953424e-04     0.00000000e+00    
           7.86246615e-04     3.57531768e-04     0.00000000e+00    
           7.84175878e-04     3.56320787e-04     0.00000000e+00    
           7.82506191e-04     3.54468793e-04     0.00000000e+00    
           7.80763337e-04     3.52145755e-04     0.00000000e+00    
           7.79713038e-04     3.49829003e-04     0.00000000e+00    
           7.79391208e-04     3.47666879e-04     0.00000000e+00    
           7.80453614e-04     3.43528693e-04     0.00000000e+00    
           7.81887327e-04     3.41830309e-04     0.00000000e+00    
           7.83716619e-04     3.40665429e-04     0.00000000e+00    
           7.85916811e-04     3.40025435e-04     0.00000000e+00    
           7.88823992e-04     3.39837803e-04     0.00000000e+00    
           7.92576757e-04     3.40296130e-04     0.00000000e+00    
           7.96051056e-04     3.41509032e-04     0.00000000e+00    
           7.98222667e-04     3.43024090e-04     0.00000000e+00    
           7.99163419e-04     3.44424421e-04     0.00000000e+00    
           7.99614470e-04     3.46040266e-04     0.00000000e+00    
           7.99479254e-04     3.47963098e-04     0.00000000e+00    
          -1.76052999e-05     3.51060182e-04     0.00000000e+00    
          -1.39685599e-05     3.51945491e-04     0.00000000e+00    
          -1.17415984e-05     3.53326352e-04     0.00000000e+00    
          -9.93581307e-06     3.55320983e-04     0.00000000e+00    
          -8.53168694e-06     3.58071178e-04     0.00000000e+00    
          -7.69475446e-06     3.60780192e-04     0.00000000e+00    
          -7.65725508e-06     3.63334373e-04     0.00000000e+00    
          -9.28034751e-06     3.66573775e-04     0.00000000e+00    
          -1.05620011e-05     3.67385015e-04     0.00000000e+00    
          -1.22948950e-05     3.68225330e-04     0.00000000e+00    
          -1.45062049e-05     3.68951965e-04     0.00000000e+00    
          -1.72838845e-05     3.69425135e-04     0.00000000e+00    
          -2.07020585e-05     3.69527086e-04     0.00000000e+00    
          -2.39068249e-05     3.68566078e-04     0.00000000e+00    
           1.02312805e-03     3.66017950e-04     0.00000000e+00    
           1.02261663e-03     3.64284206e-04     0.00000000e+00    
           1.02228601e-03     3.61297687e-04     0.00000000e+00    
           1.02230720e-03     3.58409685e-04     0.00000000e+00    
           1.02287810e-03     3.55716969e-04     0.00000000e+00    
           1.02392922e-03     3.53916024e-04     0.00000000e+00    
           1.02530979e-03     3.52997653e-04     0.00000000e+00    
           1.02694402e-03     3.52420058e-04     0.00000000e+00    
           1.27803360e-04     5.21009730e-04     0.00000000e+00    
           1.27436739e-04     5.18911809e-04     0.00000000e+00    
           1.27486550e-04     5.17341599e-04     0.00000000e+00    
           1.27998777e-04     5.15712658e-04     0.00000000e+00    
           1.29123524e-04     5.13908104e-04     0.00000000e+00    
           1.31337001e-04     5.12034982e-04     0.00000000e+00    
           1.34417132e-04     5.10494981e-04     0.00000000e+00    
           1.40915130e-04     5.09138859e-04     0.00000000e+00    
           1.43054276e-04     5.09245961e-04     0.00000000e+00    
           1.45067985e-04     5.09860518e-04     0.00000000e+00    
           1.47024679e-04     5.11239050e-04     0.00000000e+00    
           1.48704596e-04     5.13455074e-04     0.00000000e+00    
           1.49441767e-04     5.15390944e-04     0.00000000e+00    
           1.49745785e-04     5.17285720e-04     0.00000000e+00    
           1.48193882e-04    -2.57938973e-06     0.00000000e+00    
           1.46775914e-04    -6.67932696e-08     0.00000000e+00    
           1.44909369e-04     1.81463201e-06     0.00000000e+00    
           1.42242381e-04     3.39160465e-06     0.00000000e+00    
           1.39368363e-04     4.18112813e-06     0.00000000e+00    
           1.36967836e-04     4.36562232e-06     0.00000000e+00    
           1.34982110e-04     4.03777176e-06     0.00000000e+00    
           1.32919158e-04     2.70288410e-06     0.00000000e+00    
           1.30665634e-04     6.42733085e-07     0.00000000e+00    
           3.44137312e-04     4.92378371e-04     0.00000000e+00    
           3.40687810e-04     4.91541694e-04     0.00000000e+00    
           3.37644771e-04     4.90037026e-04     0.00000000e+00    
           3.35186283e-04     4.87459038e-04     0.00000000e+00    
           3.33842327e-04     4.84016782e-04     0.00000000e+00    
           3.33295582e-04     4.81152063e-04     0.00000000e+00    
           3.33538512e-04     4.78373579e-04     0.00000000e+00    
           3.34698765e-04     4.75590903e-04     0.00000000e+00    
           3.42270418e-04     4.71121020e-04     0.00000000e+00    
           3.46479908e-04     4.70016472e-04     0.00000000e+00    
           3.50306014e-04     4.69470135e-04     0.00000000e+00    
           3.53585958e-04     4.69060120e-04     0.00000000e+00    
           3.56632401e-04     4.68745566e-04     0.00000000e+00    
           3.59683880e-04     4.69236693e-04     0.00000000e+00    
           3.62263498e-04     4.70649626e-04     0.00000000e+00    
           3.64209118e-04     4.73277556e-04     0.00000000e+00    
           3.64510081e-04    -4.39959585e-05     0.00000000e+00    
           3.62586288e-04    -4.00482131e-05     0.00000000e+00    
           3.59748607e-04    -3.66679196e-05     0.00000000e+00    
           3.56147124e-04    -3.42270287e-05     0.00000000e+00    
           3.52305069e-04    -3.27479902e-05     0.00000000e+00    
           9.47839639e-04     9.55432188e-05     0.00000000e+00    
           9.46507847e-04     9.65060099e-05     0.00000000e+00    
           9.44882922e-04     9.71510162e-05     0.00000000e+00    
           9.41876846e-04     9.87512904e-05     0.00000000e+00    
           9.37913836e-04     9.97773241e-05     0.00000000e+00    
           9.34503973e-04     9.98645774e-05     0.00000000e+00    
           9.32275550e-04     9.96230447e-05     0.00000000e+00    
           9.30758950e-04     9.89092950e-05     0.00000000e+00    
           9.29741422e-04     9.77647069e-05     0.00000000e+00    
           9.28743684e-04     9.58182281e-05     0.00000000e+00    
           9.28351190e-04     9.32894764e-05     0.00000000e+00    
           9.29523434e-04     8.82225140e-05     0.00000000e+00    
           9.31037473e-04     8.59118518e-05     0.00000000e+00    
           9.33011237e-04     8.41227302e-05     0.00000000e+00    
           9.35404911e-04     8.28706761e-05     0.00000000e+00    
           9.38117562e-04     8.22821021e-05     0.00000000e+00    
           9.40542261e-04     8.23020891e-05     0.00000000e+00    
           9.42712359e-04     8.30197678e-05     0.00000000e+00    
           9.44908534e-04     8.44460956e-05     0.00000000e+00    
           9.47017339e-04     8.67279596e-05     0.00000000e+00    
           9.48473811e-04     8.93565011e-05     0.00000000e+00    
           9.49149777e-04     9.19495433e-05     0.00000000e+00    
           9.56557749e-04     4.63520293e-04     0.00000000e+00    
           9.54272458e-04     4.65647987e-04     0.00000000e+00    
           9.51368245e-04     4.67553327e-04     0.00000000e+00    
           9.48570610e-04     4.68404149e-04     0.00000000e+00    
           9.45893349e-04     4.68469370e-04     0.00000000e+00    
           9.42749670e-04     4.67531499e-04     0.00000000e+00    
           9.39762394e-04     4.65610821e-04     0.00000000e+00    
           9.37537639e-04     4.63857810e-04     0.00000000e+00    
           9.35999851e-04     4.62500611e-04     0.00000000e+00    
           9.34318930e-04     4.59106057e-04     0.00000000e+00    
           9.34557524e-04     4.56684851e-04     0.00000000e+00    
           9.35573480e-04     4.54410882e-04     0.00000000e+00    
           9.37336008e-04     4.52616689e-04     0.00000000e+00    
           9.39685677e-04     4.51061031e-04     0.00000000e+00    
           9.43302759e-04     4.49723826e-04     0.00000000e+00    
           9.46803484e-04     4.48984996e-04     0.00000000e+00    
           9.49538546e-04     4.48443578e-04     0.00000000e+00    
           9.51734488e-04     4.48748586e-04     0.00000000e+00    
          -9.45814900e-05     4.51714848e-04     0.00000000e+00    
          -9.31406757e-05     4.54103341e-04     0.00000000e+00    
          -9.22203471e-05     4.56191890e-04     0.00000000e+00    
          -9.18279911e-05     4.58119350e-04     0.00000000e+00    
          -9.17488724e-05     4.59617673e-04     0.00000000e+00    
           2.29002952e-04     4.26677783e-04     0.00000000e+00    
           2.29129611e-04     4.29668726e-04     0.00000000e+00    
           2.28615492e-04     4.31710883e-04     0.00000000e+00    
           2.27780314e-04     4.33454552e-04     0.00000000e+00    
           2.26155084e-04     4.35103138e-04     0.00000000e+00    
           2.23000519e-04     4.36751347e-04     0.00000000e+00    
           2.19293885e-04     4.37409646e-04     0.00000000e+00    
           2.16460961e-04     4.37516865e-04     0.00000000e+00    
           2.14136322e-04     4.37134062e-04     0.00000000e+00    
           2.12215731e-04     4.36184317e-04     0.00000000e+00    
           2.10070371e-04     4.33982146e-04     0.00000000e+00    
           2.08490732e-04     4.31241817e-04     0.00000000e+00    
           2.07109057e-04     4.27208317e-04     0.00000000e+00    
           2.07134683e-04     4.25604347e-04     0.00000000e+00    
           2.07725097e-04     4.23778692e-04     0.00000000e+00    
           2.09384845e-04     4.21499630e-04     0.00000000e+00    
           2.11974257e-04     4.19520220e-04     0.00000000e+00    
           2.15128646e-04     4.17938136e-04     0.00000000e+00    
           2.17292050e-04     4.17159521e-04     0.00000000e+00    
           2.19193738e-04     4.16915311e-04     0.00000000e+00    
           2.21467300e-04     4.17551637e-04     0.00000000e+00    
           2.23762137e-04     4.18878335e-04     0.00000000e+00    
           2.25800322e-04     4.20447555e-04     0.00000000e+00    
           2.27390148e-04     4.22190962e-04     0.00000000e+00    
           7.41391908e-04     4.59894916e-04     0.00000000e+00    
           7.37499155e-04     4.60763753e-04     0.00000000e+00    
           7.33141380e-04     4.60615644e-04     0.00000000e+00    
           7.28871615e-04     4.59386734e-04     0.00000000e+00    
           7.24737416e-04     4.57038812e-04     0.00000000e+00    
           7.21294840e-04     4.53806366e-04     0.00000000e+00    
           7.19025207e-04     4.49949759e-04     0.00000000e+00    
           7.18512165e-04     4.46000777e-04     0.00000000e+00    
           7.19357282e-04     4.42621647e-04     0.00000000e+00    
           7.21558754e-04     4.40391566e-04     0.00000000e+00    
           7.27753330e-04     4.38515097e-04     0.00000000e+00    
           7.31256674e-04     4.38107178e-04     0.00000000e+00    
           7.35324633e-04     4.38061776e-04     0.00000000e+00    
           7.39984680e-04     4.38373943e-04     0.00000000e+00    
           7.44302815e-04     4.39988071e-04     0.00000000e+00    
           7.47022452e-04     4.42382850e-04     0.00000000e+00    
           7.48589227e-04     4.45638463e-04     0.00000000e+00    
           7.49754254e-04     4.49855666e-04     0.00000000e+00    
           7.49225786e-04     4.54014924e-04     0.00000000e+00    
           7.47372163e-04     4.56930604e-04     0.00000000e+00    
           5.31375874e-04     1.79478331e-04     0.00000000e+00    
           5.32161095e-04     1.81320502e-04     0.00000000e+00    
           5.32319013e-04     1.83870259e-04     0.00000000e+00    
           5.30681165e-04     1.86949197e-04     0.00000000e+00    
           5.28870034e-04     1.89882543e-04     0.00000000e+00    
           5.26953896e-04     1.91861182e-04     0.00000000e+00    
           5.24282048e-04     1.92797932e-04     0.00000000e+00    
           5.20485162e-04     1.92776337e-04     0.00000000e+00    
           5.16650558e-04     1.92103209e-04     0.00000000e+00    
           5.13684237e-04     1.90727675e-04     0.00000000e+00    
           5.11299644e-04     1.89456245e-04     0.00000000e+00    
           5.07718942e-04     1.87046258e-04     0.00000000e+00    
           5.06631040e-04     1.85354496e-04     0.00000000e+00    
           5.06189303e-04     1.83286553e-04     0.00000000e+00    
           5.06783079e-04     1.80667208e-04     0.00000000e+00    
           5.08782163e-04     1.77914553e-04     0.00000000e+00    
           5.11882768e-04     1.75665860e-04     0.00000000e+00    
           5.15301421e-04     1.74405301e-04     0.00000000e+00    
           5.18947432e-04     1.73974448e-04     0.00000000e+00    
           5.22570219e-04     1.74520828e-04     0.00000000e+00    
           5.25518204e-04     1.75461551e-04     0.00000000e+00    
           5.27914497e-04     1.76696311e-04     0.00000000e+00    
           8.18893313e-05     9.40744285e-05     0.00000000e+00    
           8.47284027e-05     9.28194713e-05     0.00000000e+00    
           8.80207663e-05     9.21112878e-05     0.00000000e+00    
           9.09891533e-05     9.20031307e-05     0.00000000e+00    
           9.31756585e-05     9.26141947e-05     0.00000000e+00    
           9.49044261e-05     9.38739322e-05     0.00000000e+00    
           9.67442902e-05     9.63592174e-05     0.00000000e+00    
           9.79993420e-05     9.94393922e-05     0.00000000e+00    
           9.81467820e-05     1.01528130e-04     0.00000000e+00    
           9.68926834e-05     1.04613355e-04     0.00000000e+00    
           9.54762872e-05     1.06175074e-04     0.00000000e+00    
           9.31097966e-05     1.08068205e-04     0.00000000e+00    
           9.02423417e-05     1.09677872e-04     0.00000000e+00    
           8.75840196e-05     1.10226356e-04     0.00000000e+00    
           8.55015605e-05     1.09954461e-04     0.00000000e+00    
           8.33230370e-05     1.08966757e-04     0.00000000e+00    
           8.10375568e-05     1.07344116e-04     0.00000000e+00    
           7.88547259e-05     1.05361149e-04     0.00000000e+00    
           1.12642942e-03     1.00523226e-04     0.00000000e+00    
           1.12649554e-03     9.81991034e-05     0.00000000e+00    
           1.12723885e-03     9.67371525e-05     0.00000000e+00    
           1.12840207e-03     9.56950025e-05     0.00000000e+00    
           8.54844111e-05     2.79345462e-04     0.00000000e+00    
           8.18379194e-05     2.79294705e-04     0.00000000e+00    
           7.81634881e-05     2.78705324e-04     0.00000000e+00    
           7.39004536e-05     2.77922343e-04     0.00000000e+00    
           6.92786853e-05     2.76459585e-04     0.00000000e+00    
           6.55379044e-05     2.74102291e-04     0.00000000e+00    
           6.31770527e-05     2.71083263e-04     0.00000000e+00    
           6.20295541e-05     2.67595926e-04     0.00000000e+00    
           6.16920515e-05     2.63457739e-04     0.00000000e+00    
           6.28356720e-05     2.59644963e-04     0.00000000e+00    
           6.52751114e-05     2.56708299e-04     0.00000000e+00    
           7.20510361e-05     2.52814090e-04     0.00000000e+00    
           7.62489071e-05     2.51558289e-04     0.00000000e+00    
           8.07554679e-05     2.51099234e-04     0.00000000e+00    
           8.48594136e-05     2.51751102e-04     0.00000000e+00    
           8.81772503e-05     2.53455190e-04     0.00000000e+00    
           9.06186178e-05     2.56182830e-04     0.00000000e+00    
           9.24297710e-05     2.59605004e-04     0.00000000e+00    
           9.36578290e-05     2.63685884e-04     0.00000000e+00    
           9.39681267e-05     2.67959898e-04     0.00000000e+00    