<?xml version="1.0"?>
<VTKFile type="UnstructuredGrid" version="0.1">
  <UnstructuredGrid>
    <Piece NumberOfPoints="1034" NumberOfCells="1614">
      <Points>
        <DataArray type="Float32" NumberOfComponents="3">
           5.21582007e-01     5.11657000e-01     0.00000000e+00    
           5.07319987e-01     5.11657000e-01     0.00000000e+00    
           4.65243995e-01     5.17907977e-01     0.00000000e+00    
           4.65243995e-01     5.04921973e-01     0.00000000e+00    
           4.75246996e-01     5.11415005e-01     0.00000000e+00    
           5.33852994e-01     5.04921973e-01     0.00000000e+00    
           5.33852994e-01     5.17907977e-01     0.00000000e+00    
           4.83779997e-01     5.34618974e-01     0.00000000e+00    
           4.68984991e-01     5.34618974e-01     0.00000000e+00    
           4.76381987e-01     5.23841977e-01     0.00000000e+00    
           4.68984991e-01     4.66010004e-01     0.00000000e+00    
           4.83779997e-01     4.66010004e-01     0.00000000e+00    
           4.99920011e-01     5.34618974e-01     0.00000000e+00    
           4.89203990e-01     5.34618974e-01     0.00000000e+00    
           4.94562000e-01     5.22280991e-01     0.00000000e+00    
           4.89203990e-01     4.66010004e-01     0.00000000e+00    
           4.99920011e-01     4.66010004e-01     0.00000000e+00    
           5.32517016e-01     4.74112004e-01     0.00000000e+00    
           5.17961025e-01     4.74112004e-01     0.00000000e+00    
           5.33852994e-01     5.19801974e-01     0.00000000e+00    
           5.33852994e-01     5.29603004e-01     0.00000000e+00    
           5.19536972e-01     5.24702013e-01     0.00000000e+00    
           4.65243995e-01     5.29603004e-01     0.00000000e+00    
           4.65243995e-01     5.19801974e-01     0.00000000e+00    
           4.92487997e-01     5.17117977e-01     0.00000000e+00    
           4.76904988e-01     5.17117977e-01     0.00000000e+00    
           5.17996013e-01     5.27033985e-01     0.00000000e+00    
           5.04473984e-01     5.27033985e-01     0.00000000e+00    
           5.08446991e-01     4.83435005e-01     0.00000000e+00    
           4.94414002e-01     4.83435005e-01     0.00000000e+00    
           4.65243995e-01     4.83101994e-01     0.00000000e+00    
           4.65243995e-01     4.74415004e-01     0.00000000e+00    
           4.78336990e-01     4.78758007e-01     0.00000000e+00    
           5.33852994e-01     4.74415004e-01     0.00000000e+00    
           5.33852994e-01     4.83101994e-01     0.00000000e+00    
           4.80668008e-01     4.95810986e-01     0.00000000e+00    
           4.66084987e-01     4.95810986e-01     0.00000000e+00    
           4.93930012e-01     4.79214013e-01     0.00000000e+00    
           4.78967011e-01     4.79214013e-01     0.00000000e+00    
           5.09284973e-01     4.97658014e-01     0.00000000e+00    
           4.95503992e-01     4.97658014e-01     0.00000000e+00    
           5.33011973e-01     5.01751006e-01     0.00000000e+00    
           5.17829001e-01     5.01751006e-01     0.00000000e+00    
           4.95451003e-01     5.00564992e-01     0.00000000e+00    
           4.80922014e-01     5.00564992e-01     0.00000000e+00    
           5.25367022e-01     4.88312006e-01     0.00000000e+00    
           5.09521008e-01     4.88312006e-01     0.00000000e+00    
           4.65243995e-01     5.34618974e-01     0.00000000e+00    
           4.65243995e-01     4.66010004e-01     0.00000000e+00    
           5.33852994e-01     4.66010004e-01     0.00000000e+00    
           5.33852994e-01     5.34618974e-01     0.00000000e+00    
           5.21338999e-01     5.13502657e-01     0.00000000e+00    
           5.20626605e-01     5.15222490e-01     0.00000000e+00    
           5.19493401e-01     5.16699374e-01     0.00000000e+00    
           5.18016517e-01     5.17832637e-01     0.00000000e+00    
           5.16296625e-01     5.18545032e-01     0.00000000e+00    
           5.14451027e-01     5.18787980e-01     0.00000000e+00    
           5.12605369e-01     5.18545032e-01     0.00000000e+00    
           5.10885477e-01     5.17832637e-01     0.00000000e+00    
           5.09408593e-01     5.16699374e-01     0.00000000e+00    
           5.08275390e-01     5.15222490e-01     0.00000000e+00    
           5.07562995e-01     5.13502657e-01     0.00000000e+00    
           5.07562995e-01     5.09811342e-01     0.00000000e+00    
           5.08275390e-01     5.08091509e-01     0.00000000e+00    
           5.09408593e-01     5.06614625e-01     0.00000000e+00    
           5.10885477e-01     5.05481362e-01     0.00000000e+00    
           5.12605369e-01     5.04768968e-01     0.00000000e+00    
           5.14451027e-01     5.04526019e-01     0.00000000e+00    
           5.16296625e-01     5.04768968e-01     0.00000000e+00    
           5.18016517e-01     5.05481362e-01     0.00000000e+00    
           5.19493401e-01     5.06614625e-01     0.00000000e+00    
           5.20626605e-01     5.08091509e-01     0.00000000e+00    
           5.21338999e-01     5.09811342e-01     0.00000000e+00    
           4.66931671e-01     5.04409373e-01     0.00000000e+00    
           4.68693614e-01     5.04328012e-01     0.00000000e+00    
           4.70421344e-01     5.04682958e-01     0.00000000e+00    
           4.72008497e-01     5.05452335e-01     0.00000000e+00    
           4.73357379e-01     5.06588817e-01     0.00000000e+00    
           4.74384934e-01     5.08022368e-01     0.00000000e+00    
           4.75027919e-01     5.09664834e-01     0.00000000e+00    
           4.75028187e-01     5.13165236e-01     0.00000000e+00    
           4.74385172e-01     5.14807761e-01     0.00000000e+00    
           4.73357558e-01     5.16241372e-01     0.00000000e+00    
           4.72008646e-01     5.17377913e-01     0.00000000e+00    
           4.70421433e-01     5.18147290e-01     0.00000000e+00    
           4.68693614e-01     5.18502235e-01     0.00000000e+00    
           4.66931641e-01     5.18420875e-01     0.00000000e+00    
           5.32303810e-01     5.16964078e-01     0.00000000e+00    
           5.31043947e-01     5.15658796e-01     0.00000000e+00    
           5.30155540e-01     5.14077127e-01     0.00000000e+00    
           5.29696345e-01     5.12322068e-01     0.00000000e+00    
           5.29696345e-01     5.10507941e-01     0.00000000e+00    
           5.30155540e-01     5.08752882e-01     0.00000000e+00    
           5.31043947e-01     5.07171214e-01     0.00000000e+00    
           5.32303810e-01     5.05865932e-01     0.00000000e+00    
           4.68517244e-01     5.32760799e-01     0.00000000e+00    
           4.68509018e-01     5.30844629e-01     0.00000000e+00    
           4.68960851e-01     5.28982460e-01     0.00000000e+00    
           4.69846308e-01     5.27283132e-01     0.00000000e+00    
           4.71113682e-01     5.25845945e-01     0.00000000e+00    
           4.72688884e-01     5.24754822e-01     0.00000000e+00    
           4.74479854e-01     5.24073541e-01     0.00000000e+00    
           4.78284091e-01     5.24073601e-01     0.00000000e+00    
           4.80075032e-01     5.24754822e-01     0.00000000e+00    
           4.81650203e-01     5.25845885e-01     0.00000000e+00    
           4.82917547e-01     5.27283013e-01     0.00000000e+00    
           4.83803004e-01     5.28982282e-01     0.00000000e+00    
           4.84254897e-01     5.30844331e-01     0.00000000e+00    
           4.84246761e-01     5.32760441e-01     0.00000000e+00    
           4.82887864e-01     4.67691004e-01     0.00000000e+00    
           4.81620818e-01     4.69110936e-01     0.00000000e+00    
           4.80051905e-01     4.70188022e-01     0.00000000e+00    
           4.78271484e-01     4.70860153e-01     0.00000000e+00    
           4.76382166e-01     4.71088618e-01     0.00000000e+00    
           4.74492878e-01     4.70860243e-01     0.00000000e+00    
           4.72712427e-01     4.70188200e-01     0.00000000e+00    
           4.71143454e-01     4.69111174e-01     0.00000000e+00    
           4.69876349e-01     4.67691302e-01     0.00000000e+00    
           4.88103986e-01     5.33086061e-01     0.00000000e+00    
           4.87431526e-01     5.31323195e-01     0.00000000e+00    
           4.87231195e-01     5.29447019e-01     0.00000000e+00    
           4.87516224e-01     5.27581930e-01     0.00000000e+00    
           4.88267750e-01     5.25851250e-01     0.00000000e+00    
           4.89436030e-01     5.24369657e-01     0.00000000e+00    
           4.90943670e-01     5.23235261e-01     0.00000000e+00    
           4.92690891e-01     5.22523046e-01     0.00000000e+00    
           4.96432930e-01     5.22523701e-01     0.00000000e+00    
           4.98180002e-01     5.23235798e-01     0.00000000e+00    
           4.99687493e-01     5.24370134e-01     0.00000000e+00    
           5.00855684e-01     5.25851607e-01     0.00000000e+00    
           5.01607120e-01     5.27582109e-01     0.00000000e+00    
           5.01892149e-01     5.29447079e-01     0.00000000e+00    
           5.01691818e-01     5.31323016e-01     0.00000000e+00    
           5.01019418e-01     5.33085763e-01     0.00000000e+00    
           4.98371124e-01     4.67269689e-01     0.00000000e+00    
           4.96539861e-01     4.68064904e-01     0.00000000e+00    
           4.94562000e-01     4.68336672e-01     0.00000000e+00    
           4.92584139e-01     4.68064904e-01     0.00000000e+00    
           4.90752876e-01     4.67269689e-01     0.00000000e+00    
           5.32269001e-01     4.75995690e-01     0.00000000e+00    
           5.31541944e-01     4.77750987e-01     0.00000000e+00    
           5.30385315e-01     4.79258329e-01     0.00000000e+00    
           5.28877974e-01     4.80414927e-01     0.00000000e+00    
[...]
      <PointData>
        <DataArray type="Float32" Name="Displacement" NumberOfComponents="3">
           7.62038573e-04     3.33127537e-04     0.00000000e+00    
           7.43207638e-04     3.27910093e-04     0.00000000e+00    
          -2.63432303e-05     3.50346760e-04     0.00000000e+00    
          -2.21265909e-05     3.34972254e-04     0.00000000e+00    
          -9.05216530e-06     3.48040718e-04     0.00000000e+00    
           9.77873453e-04     3.34972254e-04     0.00000000e+00    
           9.73656774e-04     3.50346760e-04     0.00000000e+00    
           1.42141478e-04     4.94133856e-04     0.00000000e+00    
           1.22350655e-04     4.98221663e-04     0.00000000e+00    
           1.30320797e-04     4.84488643e-04     0.00000000e+00    
           1.22350655e-04    -1.77833908e-06     0.00000000e+00    
           1.42141478e-04    -5.86613351e-06     0.00000000e+00    
           3.48240748e-04     4.51829575e-04     0.00000000e+00    
           3.31505144e-04     4.67825535e-04     0.00000000e+00    
           3.21036845e-04     4.48534352e-04     0.00000000e+00    
           3.31505144e-04    -3.21744519e-05     0.00000000e+00    
           3.48240748e-04    -4.81704337e-05     0.00000000e+00    
           9.04740882e-04     9.14889606e-05     0.00000000e+00    
           8.84862267e-04     8.79389190e-05     0.00000000e+00    
           9.07854468e-04     4.28123749e-04     0.00000000e+00    
           9.12193442e-04     4.39511234e-04     0.00000000e+00    
           8.89330695e-04     4.39477590e-04     0.00000000e+00    
          -8.78065621e-05     4.39511234e-04     0.00000000e+00    
          -9.21455139e-05     4.28123749e-04     0.00000000e+00    
           2.16179382e-04     4.03552433e-04     0.00000000e+00    
           1.95683228e-04     4.08789201e-04     0.00000000e+00    
           7.08942069e-04     4.36838920e-04     0.00000000e+00    
           6.88779342e-04     4.16813971e-04     0.00000000e+00    
           5.03630959e-04     1.69907333e-04     0.00000000e+00    
           4.83144104e-04     1.78726725e-04     0.00000000e+00    
           7.39660536e-05     9.83123755e-05     0.00000000e+00    
           7.55956498e-05     9.04220287e-05     0.00000000e+00    
           9.39447564e-05     9.73327260e-05     0.00000000e+00    
           1.07559562e-03     9.04220287e-05     0.00000000e+00    
           1.07396604e-03     9.83123755e-05     0.00000000e+00    
           8.50804354e-05     2.66187126e-04     0.00000000e+00    
           6.47496709e-05     2.42909344e-04     0.00000000e+00    
           2.52982805e-04     1.14860995e-04     0.00000000e+00    
           2.30914855e-04     1.09653331e-04     0.00000000e+00    
           5.29795012e-04     2.15557666e-04     0.00000000e+00    
           5.09371574e-04     2.40921596e-04     0.00000000e+00    
           8.68452480e-04     2.80014094e-04     0.00000000e+00    
           8.46445793e-04     2.80327513e-04     0.00000000e+00    
           2.73274229e-04     2.87884701e-04     0.00000000e+00    
           2.52018537e-04     2.85390823e-04     0.00000000e+00    
           7.66441866e-04     1.97568661e-04     0.00000000e+00    
           7.44109100e-04     1.86737700e-04     0.00000000e+00    
           0.00000000e+00     5.00000024e-04     0.00000000e+00    
           0.00000000e+00     0.00000000e+00     0.00000000e+00    
           1.00000005e-03     0.00000000e+00     0.00000000e+00    
           1.00000005e-03     5.00000024e-04     0.00000000e+00    
           7.60762370e-04     3.35950055e-04     0.00000000e+00    
           7.59406830e-04     3.37861857e-04     0.00000000e+00    
           7.57584698e-04     3.39242892e-04     0.00000000e+00    
           7.55292247e-04     3.39977298e-04     0.00000000e+00    
           7.52474240e-04     3.40238446e-04     0.00000000e+00    
           7.49364262e-04     3.39777936e-04     0.00000000e+00    
           7.47363199e-04     3.38530546e-04     0.00000000e+00    
           7.45788566e-04     3.36623372e-04     0.00000000e+00    
           7.44150311e-04     3.34301876e-04     0.00000000e+00    
           7.43172073e-04     3.32029391e-04     0.00000000e+00    
           7.42900651e-04     3.29919130e-04     0.00000000e+00    
           7.43995945e-04     3.25905858e-04     0.00000000e+00    
           7.45396130e-04     3.24259599e-04     0.00000000e+00    
           7.47193408e-04     3.23147222e-04     0.00000000e+00    
           7.49356754e-04     3.22583626e-04     0.00000000e+00    
           7.52222550e-04     3.22461507e-04     0.00000000e+00    
           7.55924208e-04     3.22945853e-04     0.00000000e+00    
           7.59401824e-04     3.24119988e-04     0.00000000e+00    
           7.61636533e-04     3.25576053e-04     0.00000000e+00    
           7.62571639e-04     3.26971523e-04     0.00000000e+00    
           7.62975484e-04     3.28623049e-04     0.00000000e+00    
           7.62697367e-04     3.30574840e-04     0.00000000e+00    
          -1.85662575e-05     3.34112439e-04     0.00000000e+00    
          -1.49517864e-05     3.34981683e-04     0.00000000e+00    
          -1.27432058e-05     3.36322846e-04     0.00000000e+00    
          -1.09720768e-05     3.38305661e-04     0.00000000e+00    
          -9.60360558e-06     3.40998988e-04     0.00000000e+00    
          -8.74053603e-06     3.43617663e-04     0.00000000e+00    
          -8.61403623e-06     3.46102839e-04     0.00000000e+00    
          -1.00373336e-05     3.49255744e-04     0.00000000e+00    
          -1.12553462e-05     3.50024842e-04     0.00000000e+00    
          -1.29465780e-05     3.50825489e-04     0.00000000e+00    
          -1.51495724e-05     3.51520284e-04     0.00000000e+00    
          -1.78802347e-05     3.51987517e-04     0.00000000e+00    
          -2.12125942e-05     3.52133065e-04     0.00000000e+00    
          -2.43741579e-05     3.51307681e-04     0.00000000e+00    
           9.72643436e-04     3.48991132e-04     0.00000000e+00    
           9.72160953e-04     3.47294990e-04     0.00000000e+00    
           9.71870031e-04     3.44313972e-04     0.00000000e+00    
           9.71844420e-04     3.41470324e-04     0.00000000e+00    
           9.72268463e-04     3.38782906e-04     0.00000000e+00    
           9.73164279e-04     3.36958561e-04     0.00000000e+00    
           9.74434544e-04     3.36016936e-04     0.00000000e+00    
           9.76012729e-04     3.35415418e-04     0.00000000e+00    
           1.20986486e-04     4.95834392e-04     0.00000000e+00    
           1.20480436e-04     4.93759115e-04     0.00000000e+00    
           1.20438359e-04     4.92221152e-04     0.00000000e+00    
           1.20893914e-04     4.90626961e-04     0.00000000e+00    
           1.21998746e-04     4.88845806e-04     0.00000000e+00    
           1.24194514e-04     4.87002108e-04     0.00000000e+00    
           1.27211446e-04     4.85450699e-04     0.00000000e+00    
           1.33649664e-04     4.83854703e-04     0.00000000e+00    
           1.35809998e-04     4.83847311e-04     0.00000000e+00    
           1.37818613e-04     4.84412099e-04     0.00000000e+00    
           1.39755284e-04     4.85798169e-04     0.00000000e+00    
           1.41495359e-04     4.87938698e-04     0.00000000e+00    
           1.42291363e-04     4.89801867e-04     0.00000000e+00    
           1.42612131e-04     4.91635932e-04     0.00000000e+00    
           1.41094017e-04    -3.31308661e-06     0.00000000e+00    
           1.39753582e-04    -8.15578801e-07     0.00000000e+00    
           1.37976429e-04     1.08323252e-06     0.00000000e+00    
           1.35398353e-04     2.69430529e-06     0.00000000e+00    
           1.32579080e-04     3.60747686e-06     0.00000000e+00    
           1.30196597e-04     3.91553885e-06     0.00000000e+00    
           1.28245199e-04     3.64401421e-06     0.00000000e+00    
           1.26227620e-04     2.31079594e-06     0.00000000e+00    
           1.23997932e-04     3.14550135e-07     0.00000000e+00    
           3.27536516e-04     4.67570382e-04     0.00000000e+00    
           3.24002467e-04     4.66817437e-04     0.00000000e+00    
           3.20907100e-04     4.65383579e-04     0.00000000e+00    
           3.18421662e-04     4.62868018e-04     0.00000000e+00    
           3.16952443e-04     4.59395669e-04     0.00000000e+00    
           3.16324615e-04     4.56510374e-04     0.00000000e+00    
           3.16533027e-04     4.53734392e-04     0.00000000e+00    
           3.17696278e-04     4.50978347e-04     0.00000000e+00    
           3.25250556e-04     4.46489110e-04     0.00000000e+00    
           3.29482486e-04     4.45293408e-04     0.00000000e+00    
           3.33373318e-04     4.44665144e-04     0.00000000e+00    
           3.36707890e-04     4.44186706e-04     0.00000000e+00    
           3.39806371e-04     4.43785277e-04     0.00000000e+00    
           3.42895888e-04     4.44211531e-04     0.00000000e+00    
           3.45490291e-04     4.45569080e-04     0.00000000e+00    
           3.47437192e-04     4.48186649e-04     0.00000000e+00    
           3.47679597e-04    -4.41495213e-05     0.00000000e+00    
           3.45823675e-04    -4.02364276e-05     0.00000000e+00    
           3.43084219e-04    -3.68525907e-05     0.00000000e+00    
           3.39575578e-04    -3.43505308e-05     0.00000000e+00    
           3.35787103e-04    -3.27737980e-05     0.00000000e+00    
           9.03820037e-04     9.29479502e-05     0.00000000e+00    
           9.02473694e-04     9.38861776e-05     0.00000000e+00    
           9.00808955e-04     9.44829590e-05     0.00000000e+00    
           8.97732214e-04     9.60272300e-05     0.00000000e+00    
           8.93755467e-04     9.70306428e-05     0.00000000e+00    
           8.90336116e-04     9.71596019e-05     0.00000000e+00    
           8.88097042e-04     9.69449829e-05     0.00000000e+00    
           8.86611291e-04     9.62487975e-05     0.00000000e+00    
           8.85655347e-04     9.50925023e-05     0.00000000e+00    
           8.84767389e-04     9.31062677e-05     0.00000000e+00    
           8.84482812e-04     9.05872439e-05     0.00000000e+00    
           8.85747431e-04     8.56555562e-05     0.00000000e+00    
           8.87253263e-04     8.34330131e-05     0.00000000e+00    
           8.89180868e-04     8.17225082e-05     0.00000000e+00    
           8.91499629e-04     8.05232121e-05     0.00000000e+00    
           8.94124329e-04     7.99509580e-05     0.00000000e+00    
           8.96474929e-04     7.99459231e-05     0.00000000e+00    
           8.98573780e-04     8.06559619e-05     0.00000000e+00    
           9.00700979e-04     8.20727946e-05     0.00000000e+00    
           9.02765139e-04     8.42914742e-05     0.00000000e+00    
           9.04238143e-04     8.68426869e-05     0.00000000e+00    
           9.05015680e-04     8.93890829e-05     0.00000000e+00    
           9.10864444e-04     4.41651850e-04     0.00000000e+00    
           9.08587768e-04     4.43728786e-04     0.00000000e+00    
           9.05746769e-04     4.45630780e-04     0.00000000e+00    
           9.03012697e-04     4.46515129e-04     0.00000000e+00    
           9.00393410e-04     4.46599181e-04     0.00000000e+00    
           8.97279650e-04     4.45695128e-04     0.00000000e+00    
           8.94263561e-04     4.43834986e-04     0.00000000e+00    
           8.91974254e-04     4.42147692e-04     0.00000000e+00    
           8.90391704e-04     4.40841046e-04     0.00000000e+00    
           8.88746290e-04     4.37521609e-04     0.00000000e+00    
           8.89036281e-04     4.35106893e-04     0.00000000e+00    
           8.90073599e-04     4.32871486e-04     0.00000000e+00    
           8.91824369e-04     4.31154214e-04     0.00000000e+00    
           8.94146797e-04     4.29681531e-04     0.00000000e+00    
           8.97670223e-04     4.28360538e-04     0.00000000e+00    
           9.01112158e-04     4.27537918e-04     0.00000000e+00    
           9.03836917e-04     4.26866376e-04     0.00000000e+00    
           9.06003406e-04     4.27119085e-04     0.00000000e+00    
          -9.04373082e-05     4.30105807e-04     0.00000000e+00    
          -8.89919465e-05     4.32451867e-04     0.00000000e+00    
          -8.79974832e-05     4.34515561e-04     0.00000000e+00    
          -8.75437399e-05     4.36405331e-04     0.00000000e+00    
          -8.74290708e-05     4.37865820e-04     0.00000000e+00    
           2.16844754e-04     4.05941857e-04     0.00000000e+00    
           2.17121560e-04     4.08917636e-04     0.00000000e+00    
           2.16769346e-04     4.11004701e-04     0.00000000e+00    
           2.16012835e-04     4.12784721e-04     0.00000000e+00    
           2.14431755e-04     4.14447073e-04     0.00000000e+00    
           2.11277671e-04     4.16078052e-04     0.00000000e+00    
           2.07578225e-04     4.16811585e-04     0.00000000e+00    
           2.04710392e-04     4.17028728e-04     0.00000000e+00    
           2.02384428e-04     4.16696246e-04     0.00000000e+00    
           2.00498616e-04     4.15743794e-04     0.00000000e+00    
           1.98383845e-04     4.13535599e-04     0.00000000e+00    
           1.96744746e-04     4.10850713e-04     0.00000000e+00    
           1.95181681e-04     4.06888721e-04     0.00000000e+00    
           1.95160726e-04     4.05323139e-04     0.00000000e+00    
           1.95745466e-04     4.03554324e-04     0.00000000e+00    
           1.97418121e-04     4.01323254e-04     0.00000000e+00    
           1.99973641e-04     3.99353507e-04     0.00000000e+00    
           2.03072181e-04     3.97720520e-04     0.00000000e+00    
           2.05197779e-04     3.96863878e-04     0.00000000e+00    
           2.07032150e-04     3.96601361e-04     0.00000000e+00    
           2.09233040e-04     3.97231604e-04     0.00000000e+00    
           2.11469029e-04     3.98498698e-04     0.00000000e+00    
           2.13486797e-04     3.99972894e-04     0.00000000e+00    
           2.15096879e-04     4.01614874e-04     0.00000000e+00    
           7.05661776e-04     4.37918090e-04     0.00000000e+00    
           7.01664016e-04     4.38722869e-04     0.00000000e+00    
           6.97256706e-04     4.38478601e-04     0.00000000e+00    
           6.92995440e-04     4.37146926e-04     0.00000000e+00    
           6.88908331e-04     4.34722460e-04     0.00000000e+00    
           6.85527804e-04     4.31457011e-04     0.00000000e+00    
           6.83281512e-04     4.27608844e-04     0.00000000e+00    
           6.82745711e-04     4.23675112e-04     0.00000000e+00    
           6.83602644e-04     4.20311000e-04     0.00000000e+00    
           6.85828913e-04     4.18130046e-04     0.00000000e+00    
           6.92155445e-04     4.16378462e-04     0.00000000e+00    
           6.95738127e-04     4.16029565e-04     0.00000000e+00    
           6.99897413e-04     4.16074239e-04     0.00000000e+00    
           7.04571139e-04     4.16489493e-04     0.00000000e+00    
           7.08849868e-04     4.18155832e-04     0.00000000e+00    
           7.11532135e-04     4.20556171e-04     0.00000000e+00    
           7.13046698e-04     4.23839025e-04     0.00000000e+00    
           7.14160153e-04     4.28064581e-04     0.00000000e+00    
           7.13634479e-04     4.32179222e-04     0.00000000e+00    
           7.11772067e-04     4.35056951e-04     0.00000000e+00    
           5.04979689e-04     1.71438878e-04     0.00000000e+00    
           5.05610020e-04     1.73148292e-04     0.00000000e+00    
           5.05601114e-04     1.75514404e-04     0.00000000e+00    
           5.03827585e-04     1.78373768e-04     0.00000000e+00    
           5.01954230e-04     1.81186057e-04     0.00000000e+00    
           5.00023132e-04     1.82974705e-04     0.00000000e+00    
           4.97402565e-04     1.83639117e-04     0.00000000e+00    
           4.93749510e-04     1.83409749e-04     0.00000000e+00    
           4.90070321e-04     1.82649615e-04     0.00000000e+00    
           4.87206824e-04     1.81200143e-04     0.00000000e+00    
           4.84934659e-04     1.79883296e-04     0.00000000e+00    
           4.81643627e-04     1.77567781e-04     0.00000000e+00    
           4.80725546e-04     1.75999026e-04     0.00000000e+00    
           4.80452320e-04     1.74109708e-04     0.00000000e+00    
           4.81200899e-04     1.71709791e-04     0.00000000e+00    
           4.83286800e-04     1.69214472e-04     0.00000000e+00    
           4.86347271e-04     1.67209349e-04     0.00000000e+00    
           4.89668164e-04     1.66142432e-04     0.00000000e+00    
           4.93174535e-04     1.65841673e-04     0.00000000e+00    
           4.96662688e-04     1.66461716e-04     0.00000000e+00    
           4.99525224e-04     1.67462887e-04     0.00000000e+00    
           5.01809584e-04     1.68742539e-04     0.00000000e+00    
           7.76009983e-05     8.94984478e-05     0.00000000e+00    
           8.03850780e-05     8.81608576e-05     0.00000000e+00    
           8.36033432e-05     8.73039899e-05     0.00000000e+00    
           8.65447146e-05     8.69626601e-05     0.00000000e+00    
           8.87459391e-05     8.73675453e-05     0.00000000e+00    
           9.05095440e-05     8.84893670e-05     0.00000000e+00    
           9.24086635e-05     9.08844013e-05     0.00000000e+00    
           9.38249214e-05     9.38376470e-05     0.00000000e+00    
           9.41735125e-05     9.58151795e-05     0.00000000e+00    
           9.32362600e-05     9.88335887e-05     0.00000000e+00    
           9.19135273e-05     1.00413250e-04     0.00000000e+00    
           8.95870762e-05     1.02326987e-04     0.00000000e+00    
           8.68214120e-05     1.03999526e-04     0.00000000e+00    
           8.42840382e-05     1.04682666e-04     0.00000000e+00    
           8.22908696e-05     1.04549348e-04     0.00000000e+00    
           8.01681090e-05     1.03675477e-04     0.00000000e+00    
           7.79021648e-05     1.02203812e-04     0.00000000e+00    
           7.56988375e-05     1.00399629e-04     0.00000000e+00    
           1.07297965e-03     9.59182726e-05     0.00000000e+00    
           1.07281015e-03     9.36683209e-05     0.00000000e+00    
           1.07333460e-03     9.22589461e-05     0.00000000e+00    
           1.07432553e-03     9.12023388e-05     0.00000000e+00    
           8.18631306e-05     2.67051044e-04     0.00000000e+00    
           7.82961142e-05     2.66987976e-04     0.00000000e+00    
           7.46533478e-05     2.66398856e-04     0.00000000e+00    
           7.03811966e-05     2.65611045e-04     0.00000000e+00    
           6.58051431e-05     2.64176109e-04     0.00000000e+00    
           6.21028958e-05     2.61906709e-04     0.00000000e+00    
           5.97481485e-05     2.59025022e-04     0.00000000e+00    
           5.85930939e-05     2.55640363e-04     0.00000000e+00    
           5.82156390e-05     2.51605903e-04     0.00000000e+00    
           5.93013101e-05     2.47904856e-04     0.00000000e+00    
           6.16815087e-05     2.45078583e-04     0.00000000e+00    
           6.84107072e-05     2.41265720e-04     0.00000000e+00    
           7.25741193e-05     2.40035050e-04     0.00000000e+00    
           7.69918479e-05     2.39588306e-04     0.00000000e+00    
           8.09914854e-05     2.40196008e-04     0.00000000e+00    
           8.42151567e-05     2.41804271e-04     0.00000000e+00    
           8.65759066e-05     2.44453084e-04     0.00000000e+00    
           8.83244065e-05     2.47825345e-04     0.00000000e+00    
           8.95113481e-05     2.51808407e-04     0.00000000e+00    
           8.98215731e-05     2.55959283e-04     0.00000000e+00    