<?xml version="1.0"?>
<VTKFile type="UnstructuredGrid" version="0.1">
  <UnstructuredGrid>
    <Piece NumberOfPoints="1034" NumberOfCells="1614">
      <Points>
        <DataArray type="Float32" NumberOfComponents="3">
           5.21582007e-01     5.11657000e-01     0.00000000e+00    
           5.07319987e-01     5.11657000e-01     0.00000000e+00    
           4.65243995e-01     5.17907977e-01     0.00000000e+00    
           4.65243995e-01     5.04921973e-01     0.00000000e+00    
           4.75246996e-01     5.11415005e-01     0.00000000e+00    
           5.33852994e-01     5.04921973e-01     0.00000000e+00    
           5.33852994e-01     5.17907977e-01     0.00000000e+00    
           4.83779997e-01     5.34618974e-01     0.00000000e+00    
           4.68984991e-01     5.34618974e-01     0.00000000e+00    
           4.76381987e-01     5.23841977e-01     0.00000000e+00    
           4.68984991e-01     4.66010004e-01     0.00000000e+00    
           4.83779997e-01     4.66010004e-01     0.00000000e+00    
           4.99920011e-01     5.34618974e-01     0.00000000e+00    
           4.89203990e-01     5.34618974e-01     0.00000000e+00    
           4.94562000e-01     5.22280991e-01     0.00000000e+00    
           4.89203990e-01     4.66010004e-01     0.00000000e+00    
           4.99920011e-01     4.66010004e-01     0.00000000e+00    
           5.32517016e-01     4.74112004e-01     0.00000000e+00    
           5.17961025e-01     4.74112004e-01     0.00000000e+00    
           5.33852994e-01     5.19801974e-01     0.00000000e+00    
           5.33852994e-01     5.29603004e-01     0.00000000e+00    
           5.19536972e-01     5.24702013e-01     0.00000000e+00    
           4.65243995e-01     5.29603004e-01     0.00000000e+00    
           4.65243995e-01     5.19801974e-01     0.00000000e+00    
           4.92487997e-01     5.17117977e-01     0.00000000e+00    
           4.76904988e-01     5.17117977e-01     0.00000000e+00    
           5.17996013e-01     5.27033985e-01     0.00000000e+00    
           5.04473984e-01     5.27033985e-01     0.00000000e+00    
           5.08446991e-01     4.83435005e-01     0.00000000e+00    
           4.94414002e-01     4.83435005e-01     0.00000000e+00    
           4.65243995e-01     4.83101994e-01     0.00000000e+00    
           4.65243995e-01     4.74415004e-01     0.00000000e+00    
           4.78336990e-01     4.78758007e-01     0.00000000e+00    
           5.33852994e-01     4.74415004e-01     0.00000000e+00    
           5.33852994e-01     4.83101994e-01     0.00000000e+00    
           4.80668008e-01     4.95810986e-01     0.00000000e+00    
           4.66084987e-01     4.95810986e-01     0.00000000e+00    
           4.93930012e-01     4.79214013e-01     0.00000000e+00    
           4.78967011e-01     4.79214013e-01     0.00000000e+00    
           5.09284973e-01     4.97658014e-01     0.00000000e+00    
           4.95503992e-01     4.97658014e-01     0.00000000e+00    
           5.33011973e-01     5.01751006e-01     0.00000000e+00    
           5.17829001e-01     5.01751006e-01     0.00000000e+00    
           4.95451003e-01     5.00564992e-01     0.00000000e+00    
           4.80922014e-01     5.00564992e-01     0.00000000e+00    
           5.25367022e-01     4.88312006e-01     0.00000000e+00    
           5.09521008e-01     4.88312006e-01     0.00000000e+00    
           4.65243995e-01     5.34618974e-01     0.00000000e+00    
           4.65243995e-01     4.66010004e-01     0.00000000e+00    
           5.33852994e-01     4.66010004e-01     0.00000000e+00    
           5.33852994e-01     5.34618974e-01     0.00000000e+00    
           5.21338999e-01     5.13502657e-01     0.00000000e+00    
           5.20626605e-01     5.15222490e-01     0.00000000e+00    
           5.19493401e-01     5.16699374e-01     0.00000000e+00    
           5.18016517e-01     5.17832637e-01     0.00000000e+00    
           5.16296625e-01     5.18545032e-01     0.00000000e+00    
           5.14451027e-01     5.18787980e-01     0.00000000e+00    
           5.12605369e-01     5.18545032e-01     0.00000000e+00    
           5.10885477e-01     5.17832637e-01     0.00000000e+00    
           5.09408593e-01     5.16699374e-01     0.00000000e+00    
           5.08275390e-01     5.15222490e-01     0.00000000e+00    
           5.07562995e-01     5.13502657e-01     0.00000000e+00    
           5.07562995e-01     5.09811342e-01     0.00000000e+00    
           5.08275390e-01     5.08091509e-01     0.00000000e+00    
           5.09408593e-01     5.06614625e-01     0.00000000e+00    
           5.10885477e-01     5.05481362e-01     0.00000000e+00    
           5.12605369e-01     5.04768968e-01     0.00000000e+00    
           5.14451027e-01     5.04526019e-01     0.00000000e+00    
           5.16296625e-01     5.04768968e-01     0.00000000e+00    
           5.18016517e-01     5.05481362e-01     0.00000000e+00    
           5.19493401e-01     5.06614625e-01     0.00000000e+00    
           5.20626605e-01     5.08091509e-01     0.00000000e+00    
           5.21338999e-01     5.09811342e-01     0.00000000e+00    
           4.66931671e-01     5.04409373e-01     0.00000000e+00    
           4.68693614e-01     5.04328012e-01     0.00000000e+00    
           4.70421344e-01     5.04682958e-01     0.00000000e+00    
           4.72008497e-01     5.05452335e-01     0.00000000e+00    
           4.73357379e-01     5.06588817e-01     0.00000000e+00    
           4.74384934e-01     5.08022368e-01     0.00000000e+00    
           4.75027919e-01     5.09664834e-01     0.00000000e+00    
           4.75028187e-01     5.13165236e-01     0.00000000e+00    
           4.74385172e-01     5.14807761e-01     0.00000000e+00    
           4.73357558e-01     5.16241372e-01     0.00000000e+00    
           4.72008646e-01     5.17377913e-01     0.00000000e+00    
           4.70421433e-01     5.18147290e-01     0.00000000e+00    
           4.68693614e-01     5.18502235e-01     0.00000000e+00    
           4.66931641e-01     5.18420875e-01     0.00000000e+00    
           5.32303810e-01     5.16964078e-01     0.00000000e+00    
           5.31043947e-01     5.15658796e-01     0.00000000e+00    
           5.30155540e-01     5.14077127e-01     0.00000000e+00    
           5.29696345e-01     5.12322068e-01     0.00000000e+00    
           5.29696345e-01     5.10507941e-01     0.00000000e+00    
           5.30155540e-01     5.08752882e-01     0.00000000e+00    
           5.31043947e-01     5.07171214e-01     0.00000000e+00    
           5.32303810e-01     5.05865932e-01     0.00000000e+00    
           4.68517244e-01     5.32760799e-01     0.00000000e+00    
           4.68509018e-01     5.30844629e-01     0.00000000e+00    
           4.68960851e-01     5.28982460e-01     0.00000000e+00    
           4.69846308e-01     5.27283132e-01     0.00000000e+00    
           4.71113682e-01     5.25845945e-01     0.00000000e+00    
           4.72688884e-01     5.24754822e-01     0.00000000e+00    
           4.74479854e-01     5.24073541e-01     0.00000000e+00    
           4.78284091e-01     5.24073601e-01     0.00000000e+00    
           4.80075032e-01     5.24754822e-01     0.00000000e+00    
           4.81650203e-01     5.25845885e-01     0.00000000e+00    
           4.82917547e-01     5.27283013e-01     0.00000000e+00    
           4.83803004e-01     5.28982282e-01     0.00000000e+00    
           4.84254897e-01     5.30844331e-01     0.00000000e+00    
           4.84246761e-01     5.32760441e-01     0.00000000e+00    
           4.82887864e-01     4.67691004e-01     0.00000000e+00    
           4.81620818e-01     4.69110936e-01     0.00000000e+00    
           4.80051905e-01     4.70188022e-01     0.00000000e+00    
           4.78271484e-01     4.70860153e-01     0.00000000e+00    
           4.76382166e-01     4.71088618e-01     0.00000000e+00    
           4.74492878e-01     4.70860243e-01     0.00000000e+00    
           4.72712427e-01     4.70188200e-01     0.00000000e+00    
           4.71143454e-01     4.69111174e-01     0.00000000e+00    
           4.69876349e-01     4.67691302e-01     0.00000000e+00    
           4.88103986e-01     5.33086061e-01     0.00000000e+00    
           4.87431526e-01     5.31323195e-01     0.00000000e+00    
           4.87231195e-01     5.29447019e-01     0.00000000e+00    
           4.87516224e-01     5.27581930e-01     0.00000000e+00    
           4.88267750e-01     5.25851250e-01     0.00000000e+00    
           4.89436030e-01     5.24369657e-01     0.00000000e+00    
           4.90943670e-01     5.23235261e-01     0.00000000e+00    
           4.92690891e-01     5.22523046e-01     0.00000000e+00    
           4.96432930e-01     5.22523701e-01     0.00000000e+00    
           4.98180002e-01     5.23235798e-01     0.00000000e+00    
           4.99687493e-01     5.24370134e-01     0.00000000e+00    
           5.00855684e-01     5.25851607e-01     0.00000000e+00    
           5.01607120e-01     5.27582109e-01     0.00000000e+00    
           5.01892149e-01     5.29447079e-01     0.00000000e+00    
           5.01691818e-01     5.31323016e-01     0.00000000e+00    
           5.01019418e-01     5.33085763e-01     0.00000000e+00    
           4.98371124e-01     4.67269689e-01     0.00000000e+00    
           4.96539861e-01     4.68064904e-01     0.00000000e+00    
           4.94562000e-01     4.68336672e-01     0.00000000e+00    
           4.92584139e-01     4.68064904e-01     0.00000000e+00    
           4.90752876e-01     4.67269689e-01     0.00000000e+00    
           5.32269001e-01     4.75995690e-01     0.00000000e+00    
           5.31541944e-01     4.77750987e-01     0.00000000e+00    
           5.30385315e-01     4.79258329e-01     0.00000000e+00    
           5.28877974e-01     4.80414927e-01     0.00000000e+00    
[...]
      <PointData>
        <DataArray type="Float32" Name="Displacement" NumberOfComponents="3">
           1.16292984e-04     4.83346848e-05     0.00000000e+00    
           1.11879388e-04     4.59671719e-05     0.00000000e+00    
          -8.68332882e-06     5.12940424e-05     0.00000000e+00    
          -1.01240112e-05     4.64151781e-05     0.00000000e+00    
          -4.75265915e-06     4.94874730e-05     0.00000000e+00    
           1.39875992e-04     4.64151781e-05     0.00000000e+00    
           1.41316676e-04     5.12940424e-05     0.00000000e+00    
           2.24698015e-05     7.12422989e-05     0.00000000e+00    
           1.74508223e-05     7.33015477e-05     0.00000000e+00    
           1.87776604e-05     6.96067655e-05     0.00000000e+00    
           1.74508223e-05    -1.69845157e-06     0.00000000e+00    
           2.24698015e-05    -3.75770151e-06     0.00000000e+00    
           5.67715979e-05     6.30343493e-05     0.00000000e+00    
           5.25359537e-05     6.63330939e-05     0.00000000e+00    
           5.01457580e-05     6.24528329e-05     0.00000000e+00    
           5.25359537e-05    -8.66690607e-06     0.00000000e+00    
           5.67715979e-05    -1.19656524e-05     0.00000000e+00    
           1.41778495e-04     1.79025628e-05     0.00000000e+00    
           1.35186914e-04     1.85606968e-05     0.00000000e+00    
           1.34465183e-04     6.25803004e-05     0.00000000e+00    
           1.36911971e-04     6.56890988e-05     0.00000000e+00    
           1.29203501e-04     6.71638918e-05     0.00000000e+00    
          -1.30880298e-05     6.56890988e-05     0.00000000e+00    
          -1.55348134e-05     6.25803004e-05     0.00000000e+00    
           3.25450164e-05     5.72743957e-05     0.00000000e+00    
           2.69200118e-05     5.87740797e-05     0.00000000e+00    
           1.05991996e-04     6.61886588e-05     0.00000000e+00    
           9.82265410e-05     6.08206574e-05     0.00000000e+00    
           7.44930803e-05     2.71853223e-05     0.00000000e+00    
           6.57469573e-05     2.19704070e-05     0.00000000e+00    
           1.35756209e-05     1.65484253e-05     0.00000000e+00    
           8.95493304e-06     1.49166563e-05     0.00000000e+00    
           1.94226050e-05     1.18348435e-05     0.00000000e+00    
           1.58954936e-04     1.49166563e-05     0.00000000e+00    
           1.63575620e-04     1.65484253e-05     0.00000000e+00    
           1.89743932e-05     3.97481526e-05     0.00000000e+00    
           1.18144280e-05     3.60259764e-05     0.00000000e+00    
           4.35665861e-05     1.56671613e-05     0.00000000e+00    
           3.34710639e-05     1.37978222e-05     0.00000000e+00    
           6.99944940e-05     3.28484930e-05     0.00000000e+00    
           6.15027384e-05     3.47425485e-05     0.00000000e+00    
           1.29201318e-04     4.05917999e-05     0.00000000e+00    
           1.22956029e-04     4.25719663e-05     0.00000000e+00    
           4.86323224e-05     3.80085112e-05     0.00000000e+00    
           3.88053741e-05     3.97814038e-05     0.00000000e+00    
           1.13913811e-04     3.32227719e-05     0.00000000e+00    
           1.06470739e-04     2.97840998e-05     0.00000000e+00    
           0.00000000e+00     7.50000036e-05     0.00000000e+00    
           0.00000000e+00     0.00000000e+00     0.00000000e+00    
           1.50000007e-04     0.00000000e+00     0.00000000e+00    
           1.50000007e-04     7.50000036e-05     0.00000000e+00    
           1.15586401e-04     4.88954429e-05     0.00000000e+00    
           1.15086230e-04     4.92580330e-05     0.00000000e+00    
           1.14564282e-04     4.94889937e-05     0.00000000e+00    
           1.13947914e-04     4.94887609e-05     0.00000000e+00    
           1.13270500e-04     4.93861153e-05     0.00000000e+00    
           1.12573776e-04     4.91938299e-05     0.00000000e+00    
           1.12201851e-04     4.87820253e-05     0.00000000e+00    
           1.12011854e-04     4.81142488e-05     0.00000000e+00    
           1.11825386e-04     4.74319422e-05     0.00000000e+00    
           1.11736597e-04     4.68567669e-05     0.00000000e+00    
           1.11771573e-04     4.63782308e-05     0.00000000e+00    
           1.12039277e-04     4.55743248e-05     0.00000000e+00    
           1.12271300e-04     4.52595195e-05     0.00000000e+00    
           1.12608679e-04     4.50593179e-05     0.00000000e+00    
           1.13107708e-04     4.50363405e-05     0.00000000e+00    
           1.13916147e-04     4.51117448e-05     0.00000000e+00    
           1.14981303e-04     4.52830973e-05     0.00000000e+00    
           1.16109404e-04     4.54326073e-05     0.00000000e+00    
           1.17476433e-04     4.54018373e-05     0.00000000e+00    
           1.19003154e-04     4.52242348e-05     0.00000000e+00    
           1.18479606e-04     4.64185905e-05     0.00000000e+00    
           1.17176976e-04     4.75508714e-05     0.00000000e+00    
          -8.63363584e-06     4.65536323e-05     0.00000000e+00    
          -7.44782847e-06     4.69416009e-05     0.00000000e+00    
          -6.75305864e-06     4.73097207e-05     0.00000000e+00    
          -6.25016855e-06     4.77781832e-05     0.00000000e+00    
          -5.91758362e-06     4.82796677e-05     0.00000000e+00    
          -5.51554922e-06     4.86876233e-05     0.00000000e+00    
          -5.16901127e-06     4.90947496e-05     0.00000000e+00    
          -4.46814602e-06     4.97735164e-05     0.00000000e+00    
          -4.58193472e-06     4.99064081e-05     0.00000000e+00    
          -5.07400182e-06     5.00348542e-05     0.00000000e+00    
          -5.71449846e-06     5.01835457e-05     0.00000000e+00    
          -6.35607057e-06     5.03976189e-05     0.00000000e+00    
          -7.11023313e-06     5.06659453e-05     0.00000000e+00    
          -7.91468847e-06     5.09115816e-05     0.00000000e+00    
           1.40835793e-04     5.13483028e-05     0.00000000e+00    
           1.40718999e-04     5.08636949e-05     0.00000000e+00    
           1.40544187e-04     5.01075374e-05     0.00000000e+00    
           1.40142161e-04     4.94425694e-05     0.00000000e+00    
           1.39497162e-04     4.86887002e-05     0.00000000e+00    
           1.38519521e-04     4.76894420e-05     0.00000000e+00    
           1.37208699e-04     4.63234101e-05     0.00000000e+00    
           1.38318399e-04     4.60307783e-05     0.00000000e+00    
           1.68274400e-05     7.27592269e-05     0.00000000e+00    
           1.62953384e-05     7.21841498e-05     0.00000000e+00    
           1.59792471e-05     7.17326984e-05     0.00000000e+00    
           1.60797808e-05     7.13350164e-05     0.00000000e+00    
           1.65241527e-05     7.08968000e-05     0.00000000e+00    
           1.71760239e-05     7.04397171e-05     0.00000000e+00    
           1.79659855e-05     6.99855300e-05     0.00000000e+00    
           1.97839217e-05     6.91616369e-05     0.00000000e+00    
           2.05632041e-05     6.88886430e-05     0.00000000e+00    
           2.10879625e-05     6.90462548e-05     0.00000000e+00    
           2.15636210e-05     6.94788396e-05     0.00000000e+00    
           2.21931678e-05     6.98920630e-05     0.00000000e+00    
           2.25865151e-05     7.02440157e-05     0.00000000e+00    
           2.26645552e-05     7.06420979e-05     0.00000000e+00    
           2.22182643e-05    -3.12980956e-06     0.00000000e+00    
           2.19568828e-05    -2.47233811e-06     0.00000000e+00    
           2.15792388e-05    -1.91651066e-06     0.00000000e+00    
           2.09705231e-05    -1.38452765e-06     0.00000000e+00    
           2.02290230e-05    -8.83151642e-07     0.00000000e+00    
           1.94922159e-05    -4.29340389e-07     0.00000000e+00    
           1.90011269e-05    -4.07159661e-07     0.00000000e+00    
           1.85618883e-05    -8.16940258e-07     0.00000000e+00    
           1.79992458e-05    -1.26323346e-06     0.00000000e+00    
           5.14454659e-05     6.63954706e-05     0.00000000e+00    
           5.04291493e-05     6.63366664e-05     0.00000000e+00    
           4.96449939e-05     6.61102677e-05     0.00000000e+00    
           4.90749662e-05     6.56100019e-05     0.00000000e+00    
           4.84115226e-05     6.46603366e-05     0.00000000e+00    
           4.79029150e-05     6.36596451e-05     0.00000000e+00    
           4.81074130e-05     6.30445647e-05     0.00000000e+00    
           4.89567210e-05     6.27509144e-05     0.00000000e+00    
           5.13983214e-05     6.20731007e-05     0.00000000e+00    
           5.27117736e-05     6.17530313e-05     0.00000000e+00    
           5.41286245e-05     6.15491299e-05     0.00000000e+00    
           5.55336155e-05     6.14338715e-05     0.00000000e+00    
           5.66601157e-05     6.13264201e-05     0.00000000e+00    
           5.72553909e-05     6.14158635e-05     0.00000000e+00    
           5.72868266e-05     6.17085534e-05     0.00000000e+00    
           5.70515767e-05     6.23374144e-05     0.00000000e+00    
           5.63641770e-05    -1.12492444e-05     0.00000000e+00    
           5.58464126e-05    -1.05534382e-05     0.00000000e+00    
           5.52101992e-05    -9.89140244e-06     0.00000000e+00    
           5.44354771e-05    -9.32556850e-06     0.00000000e+00    
           5.35869840e-05    -8.90833144e-06     0.00000000e+00    
           1.42635225e-04     1.85439694e-05     0.00000000e+00    
           1.42089368e-04     1.89992898e-05     0.00000000e+00    
           1.40723540e-04     1.92961179e-05     0.00000000e+00    
           1.39211843e-04     1.97667487e-05     0.00000000e+00    
           1.37746043e-04     2.02667725e-05     0.00000000e+00    
           1.36407805e-04     2.07506782e-05     0.00000000e+00    
           1.35085909e-04     2.12173909e-05     0.00000000e+00    
           1.34394184e-04     2.13169533e-05     0.00000000e+00    
           1.34510730e-04     2.06378245e-05     0.00000000e+00    
           1.34779402e-04     1.97546142e-05     0.00000000e+00    
           1.34986331e-04     1.91095496e-05     0.00000000e+00    
           1.35389870e-04     1.81026753e-05     0.00000000e+00    
           1.35638213e-04     1.76615267e-05     0.00000000e+00    
           1.35901108e-04     1.72871369e-05     0.00000000e+00    
           1.36232105e-04     1.69347259e-05     0.00000000e+00    
           1.36664792e-04     1.66236587e-05     0.00000000e+00    
           1.37092429e-04     1.63433542e-05     0.00000000e+00    
           1.37531228e-04     1.62639044e-05     0.00000000e+00    
           1.38082993e-04     1.63833211e-05     0.00000000e+00    
           1.38754331e-04     1.66273840e-05     0.00000000e+00    
           1.39514872e-04     1.69015057e-05     0.00000000e+00    
           1.40449323e-04     1.72964192e-05     0.00000000e+00    
           1.36506686e-04     6.62990642e-05     0.00000000e+00    
           1.35947092e-04     6.69853689e-05     0.00000000e+00    
           1.35316484e-04     6.77552089e-05     0.00000000e+00    
           1.34652291e-04     6.83042599e-05     0.00000000e+00    
           1.33920214e-04     6.85655177e-05     0.00000000e+00    
           1.32905960e-04     6.85196501e-05     0.00000000e+00    
           1.31721477e-04     6.81965394e-05     0.00000000e+00    
           1.30511326e-04     6.78872238e-05     0.00000000e+00    
           1.29484295e-04     6.75759875e-05     0.00000000e+00    
           1.29476830e-04     6.65956904e-05     0.00000000e+00    
           1.29776614e-04     6.59607613e-05     0.00000000e+00    
           1.30070839e-04     6.54107935e-05     0.00000000e+00    
           1.30473549e-04     6.50153088e-05     0.00000000e+00    
           1.30947854e-04     6.46313638e-05     0.00000000e+00    
           1.31647845e-04     6.40975995e-05     0.00000000e+00    
           1.32444809e-04     6.33948293e-05     0.00000000e+00    
           1.33334121e-04     6.25305765e-05     0.00000000e+00    
           1.34054950e-04     6.22068765e-05     0.00000000e+00    
          -1.50437063e-05     6.31618968e-05     0.00000000e+00    
          -1.44587211e-05     6.36906261e-05     0.00000000e+00    
          -1.38258974e-05     6.42338418e-05     0.00000000e+00    
          -1.32996920e-05     6.47876950e-05     0.00000000e+00    
          -1.30164663e-05     6.52312010e-05     0.00000000e+00    
           3.29688628e-05     5.77446663e-05     0.00000000e+00    
           3.35054465e-05     5.84610643e-05     0.00000000e+00    
           3.40818951e-05     5.93303630e-05     0.00000000e+00    
           3.41491104e-05     6.00693784e-05     0.00000000e+00    
           3.34541583e-05     6.03701883e-05     0.00000000e+00    
           3.22254236e-05     6.06339454e-05     0.00000000e+00    
           3.10470241e-05     6.08414666e-05     0.00000000e+00    
           3.00166375e-05     6.10877178e-05     0.00000000e+00    
           2.92780423e-05     6.10313691e-05     0.00000000e+00    
           2.88331357e-05     6.06234571e-05     0.00000000e+00    
           2.82254205e-05     6.00053063e-05     0.00000000e+00    
           2.75719558e-05     5.93518234e-05     0.00000000e+00    
           2.64064111e-05     5.82190878e-05     0.00000000e+00    
           2.64329065e-05     5.78646104e-05     0.00000000e+00    
           2.69384054e-05     5.75712729e-05     0.00000000e+00    
           2.77032450e-05     5.71376113e-05     0.00000000e+00    
           2.85619135e-05     5.66832750e-05     0.00000000e+00    
           2.94850852e-05     5.61983870e-05     0.00000000e+00    
           3.01080181e-05     5.58585853e-05     0.00000000e+00    
           3.04577334e-05     5.58681022e-05     0.00000000e+00    
           3.08283088e-05     5.61528577e-05     0.00000000e+00    
           3.12106604e-05     5.64695583e-05     0.00000000e+00    
           3.16563746e-05     5.67267525e-05     0.00000000e+00    
           3.21205371e-05     5.69636359e-05     0.00000000e+00    
           1.04670515e-04     6.64530307e-05     0.00000000e+00    
           1.03269485e-04     6.65562620e-05     0.00000000e+00    
           1.01986174e-04     6.63326209e-05     0.00000000e+00    
           1.00857782e-04     6.57983983e-05     0.00000000e+00    
           9.98041432e-05     6.50608272e-05     0.00000000e+00    
           9.89368491e-05     6.42075684e-05     0.00000000e+00    
           9.82225465e-05     6.32996816e-05     0.00000000e+00    
           9.77037780e-05     6.23861706e-05     0.00000000e+00    
           9.73650531e-05     6.16095567e-05     0.00000000e+00    
           9.74249124e-05     6.10924908e-05     0.00000000e+00    
           9.96452800e-05     6.07644870e-05     0.00000000e+00    
           1.01200319e-04     6.07262118e-05     0.00000000e+00    
           1.02699676e-04     6.08817354e-05     0.00000000e+00    
           1.04060266e-04     6.11542928e-05     0.00000000e+00    
           1.05175764e-04     6.16100806e-05     0.00000000e+00    
           1.05849693e-04     6.21565559e-05     0.00000000e+00    
           1.06205604e-04     6.30059949e-05     0.00000000e+00    
           1.06537220e-04     6.40775761e-05     0.00000000e+00    
           1.06677420e-04     6.50852089e-05     0.00000000e+00    
           1.06674088e-04     6.57950950e-05     0.00000000e+00    
           7.45418292e-05     2.76398932e-05     0.00000000e+00    
           7.36567672e-05     2.76049523e-05     0.00000000e+00    
           7.21472898e-05     2.75364491e-05     0.00000000e+00    
           7.04405174e-05     2.73156566e-05     0.00000000e+00    
           6.92035537e-05     2.71804438e-05     0.00000000e+00    
           6.84584447e-05     2.68151980e-05     0.00000000e+00    
           6.79373334e-05     2.56708117e-05     0.00000000e+00    
           6.75831179e-05     2.45874598e-05     0.00000000e+00    
           6.72370516e-05     2.38186385e-05     0.00000000e+00    
           6.69082292e-05     2.31050108e-05     0.00000000e+00    
           6.63919345e-05     2.25365820e-05     0.00000000e+00    
           6.55897456e-05     2.16860553e-05     0.00000000e+00    
           6.65528205e-05     2.18121659e-05     0.00000000e+00    
           6.81222664e-05     2.21509126e-05     0.00000000e+00    
           6.94822447e-05     2.26119992e-05     0.00000000e+00    
           7.06163919e-05     2.30936785e-05     0.00000000e+00    
           7.15042843e-05     2.36564592e-05     0.00000000e+00    
           7.22508485e-05     2.42982951e-05     0.00000000e+00    
           7.28168670e-05     2.49422374e-05     0.00000000e+00    
           7.33081833e-05     2.56079766e-05     0.00000000e+00    
           7.37046430e-05     2.62121848e-05     0.00000000e+00    
           7.40560572e-05     2.68058429e-05     0.00000000e+00    
           9.89192358e-06     1.43548459e-05     0.00000000e+00    
           1.07305223e-05     1.35354812e-05     0.00000000e+00    
           1.15787025e-05     1.26813811e-05     0.00000000e+00    
           1.24221970e-05     1.17520312e-05     0.00000000e+00    
           1.32833338e-05     1.10337187e-05     0.00000000e+00    
           1.40658203e-05     1.07929500e-05     0.00000000e+00    
           1.51204877e-05     1.09419434e-05     0.00000000e+00    
           1.64625562e-05     1.11847121e-05     0.00000000e+00    
           1.81358628e-05     1.14190252e-05     0.00000000e+00    
           1.93554333e-05     1.22855408e-05     0.00000000e+00    
           1.85428707e-05     1.27911126e-05     0.00000000e+00    
           1.78948339e-05     1.34292250e-05     0.00000000e+00    
           1.74108154e-05     1.41370556e-05     0.00000000e+00    
           1.70489311e-05     1.48110194e-05     0.00000000e+00    
           1.67268117e-05     1.53555702e-05     0.00000000e+00    
           1.62136002e-05     1.56967508e-05     0.00000000e+00    
           1.54934933e-05     1.60334730e-05     0.00000000e+00    
           1.46107468e-05     1.63187615e-05     0.00000000e+00    
           1.62376353e-04     1.66459577e-05     0.00000000e+00    
           1.60767377e-04     1.64406611e-05     0.00000000e+00    
           1.59129617e-04     1.60491927e-05     0.00000000e+00    
           1.58339099e-04     1.54373720e-05     0.00000000e+00    
           1.91778727e-05     4.01551151e-05     0.00000000e+00    
           1.82243984e-05     4.02377082e-05     0.00000000e+00    
           1.65498241e-05     4.01927937e-05     0.00000000e+00    
           1.49001871e-05     4.00031786e-05     0.00000000e+00    
           1.34334196e-05     3.96988798e-05     0.00000000e+00    
           1.22272340e-05     3.92751463e-05     0.00000000e+00    
           1.14133063e-05     3.87608416e-05     0.00000000e+00    
           1.09680750e-05     3.81282480e-05     0.00000000e+00    
           1.06775142e-05     3.74042647e-05     0.00000000e+00    
           1.05980344e-05     3.68153123e-05     0.00000000e+00    
           1.09652401e-05     3.64343432e-05     0.00000000e+00    
           1.28930342e-05     3.56851997e-05     0.00000000e+00    
           1.39564772e-05     3.54203767e-05     0.00000000e+00    
           1.49967645e-05     3.52875941e-05     0.00000000e+00    
           1.58674175e-05     3.52879906e-05     0.00000000e+00    
           1.65484580e-05     3.54016702e-05     0.00000000e+00    
           1.70361818e-05     3.58059660e-05     0.00000000e+00    
           1.74127090e-05     3.64399893e-05     0.00000000e+00    
           1.77421934e-05     3.71321803e-05     0.00000000e+00    
           1.79995550e-05     3.78222649e-05     0.00000000e+00    