<?xml version="1.0"?>
<VTKFile type="UnstructuredGrid" version="0.1">
  <UnstructuredGrid>
    <Piece NumberOfPoints="1034" NumberOfCells="1614">
      <Points>
        <DataArray type="Float32" NumberOfComponents="3">
           5.21582007e-01     5.11657000e-01     0.00000000e+00    
           5.07319987e-01     5.11657000e-01     0.00000000e+00    
           4.65243995e-01     5.17907977e-01     0.00000000e+00    
           4.65243995e-01     5.04921973e-01     0.00000000e+00    
           4.75246996e-01     5.11415005e-01     0.00000000e+00    
           5.33852994e-01     5.04921973e-01     0.00000000e+00    
           5.33852994e-01     5.17907977e-01     0.00000000e+00    
           4.83779997e-01     5.34618974e-01     0.00000000e+00    
           4.68984991e-01     5.34618974e-01     0.00000000e+00    
           4.76381987e-01     5.23841977e-01     0.00000000e+00    
           4.68984991e-01     4.66010004e-01     0.00000000e+00    
           4.83779997e-01     4.66010004e-01     0.00000000e+00    
           4.99920011e-01     5.34618974e-01     0.00000000e+00    
           4.89203990e-01     5.34618974e-01     0.00000000e+00    
           4.94562000e-01     5.22280991e-01     0.00000000e+00    
           4.89203990e-01     4.66010004e-01     0.00000000e+00    
           4.99920011e-01     4.66010004e-01     0.00000000e+00    
           5.32517016e-01     4.74112004e-01     0.00000000e+00    
           5.17961025e-01     4.74112004e-01     0.00000000e+00    
           5.33852994e-01     5.19801974e-01     0.00000000e+00    
           5.33852994e-01     5.29603004e-01     0.00000000e+00    
           5.19536972e-01     5.24702013e-01     0.00000000e+00    
           4.65243995e-01     5.29603004e-01     0.00000000e+00    
           4.65243995e-01     5.19801974e-01     0.00000000e+00    
           4.92487997e-01     5.17117977e-01     0.00000000e+00    
           4.76904988e-01     5.17117977e-01     0.00000000e+00    
           5.17996013e-01     5.27033985e-01     0.00000000e+00    
           5.04473984e-01     5.27033985e-01     0.00000000e+00    
           5.08446991e-01     4.83435005e-01     0.00000000e+00    
           4.94414002e-01     4.83435005e-01     0.00000000e+00    
           4.65243995e-01     4.83101994e-01     0.00000000e+00    
           4.65243995e-01     4.74415004e-01     0.00000000e+00    
           4.78336990e-01     4.78758007e-01     0.00000000e+00    
           5.33852994e-01     4.74415004e-01     0.00000000e+00    
           5.33852994e-01     4.83101994e-01     0.00000000e+00    
           4.80668008e-01     4.95810986e-01     0.00000000e+00    
           4.66084987e-01     4.95810986e-01     0.00000000e+00    
           4.93930012e-01     4.79214013e-01     0.00000000e+00    
           4.78967011e-01     4.79214013e-01     0.00000000e+00    
           5.09284973e-01     4.97658014e-01     0.00000000e+00    
           4.95503992e-01     4.97658014e-01     0.00000000e+00    
           5.33011973e-01     5.01751006e-01     0.00000000e+00    
           5.17829001e-01     5.01751006e-01     0.00000000e+00    
           4.95451003e-01     5.00564992e-01     0.00000000e+00    
           4.80922014e-01     5.00564992e-01     0.00000000e+00    
           5.25367022e-01     4.88312006e-01     0.00000000e+00    
           5.09521008e-01     4.88312006e-01     0.00000000e+00    
           4.65243995e-01     5.34618974e-01     0.00000000e+00    
           4.65243995e-01     4.66010004e-01     0.00000000e+00    
           5.33852994e-01     4.66010004e-01     0.00000000e+00    
           5.33852994e-01     5.34618974e-01     0.00000000e+00    
           5.21338999e-01     5.13502657e-01     0.00000000e+00    
           5.20626605e-01     5.15222490e-01     0.00000000e+00    
           5.19493401e-01     5.16699374e-01     0.00000000e+00    
           5.18016517e-01     5.17832637e-01     0.00000000e+00    
           5.16296625e-01     5.18545032e-01     0.00000000e+00    
           5.14451027e-01     5.18787980e-01     0.00000000e+00    
           5.12605369e-01     5.18545032e-01     0.00000000e+00    
           5.10885477e-01     5.17832637e-01     0.00000000e+00    
           5.09408593e-01     5.16699374e-01     0.00000000e+00    
           5.08275390e-01     5.15222490e-01     0.00000000e+00    
           5.07562995e-01     5.13502657e-01     0.00000000e+00    
           5.07562995e-01     5.09811342e-01     0.00000000e+00    
           5.08275390e-01     5.08091509e-01     0.00000000e+00    
           5.09408593e-01     5.06614625e-01     0.00000000e+00    
           5.10885477e-01     5.05481362e-01     0.00000000e+00    
           5.12605369e-01     5.04768968e-01     0.00000000e+00    
           5.14451027e-01     5.04526019e-01     0.00000000e+00    
           5.16296625e-01     5.04768968e-01     0.00000000e+00    
           5.18016517e-01     5.05481362e-01     0.00000000e+00    
           5.19493401e-01     5.06614625e-01     0.00000000e+00    
           5.20626605e-01     5.08091509e-01     0.00000000e+00    
           5.21338999e-01     5.09811342e-01     0.00000000e+00    
           4.66931671e-01     5.04409373e-01     0.00000000e+00    
           4.68693614e-01     5.04328012e-01     0.00000000e+00    
           4.70421344e-01     5.04682958e-01     0.00000000e+00    
           4.72008497e-01     5.05452335e-01     0.00000000e+00    
           4.73357379e-01     5.06588817e-01     0.00000000e+00    
           4.74384934e-01     5.08022368e-01     0.00000000e+00    
           4.75027919e-01     5.09664834e-01     0.00000000e+00    
           4.75028187e-01     5.13165236e-01     0.00000000e+00    
           4.74385172e-01     5.14807761e-01     0.00000000e+00    
           4.73357558e-01     5.16241372e-01     0.00000000e+00    
           4.72008646e-01     5.17377913e-01     0.00000000e+00    
           4.70421433e-01     5.18147290e-01     0.00000000e+00    
           4.68693614e-01     5.18502235e-01     0.00000000e+00    
           4.66931641e-01     5.18420875e-01     0.00000000e+00    
           5.32303810e-01     5.16964078e-01     0.00000000e+00    
           5.31043947e-01     5.15658796e-01     0.00000000e+00    
           5.30155540e-01     5.14077127e-01     0.00000000e+00    
           5.29696345e-01     5.12322068e-01     0.00000000e+00    
           5.29696345e-01     5.10507941e-01     0.00000000e+00    
           5.30155540e-01     5.08752882e-01     0.00000000e+00    
           5.31043947e-01     5.07171214e-01     0.00000000e+00    
           5.32303810e-01     5.05865932e-01     0.00000000e+00    
           4.68517244e-01     5.32760799e-01     0.00000000e+00    
           4.68509018e-01     5.30844629e-01     0.00000000e+00    
           4.68960851e-01     5.28982460e-01     0.00000000e+00    
           4.69846308e-01     5.27283132e-01     0.00000000e+00    
           4.71113682e-01     5.25845945e-01     0.00000000e+00    
           4.72688884e-01     5.24754822e-01     0.00000000e+00    
           4.74479854e-01     5.24073541e-01     0.00000000e+00    
           4.78284091e-01     5.24073601e-01     0.00000000e+00    
           4.80075032e-01     5.24754822e-01     0.00000000e+00    
           4.81650203e-01     5.25845885e-01     0.00000000e+00    
           4.82917547e-01     5.27283013e-01     0.00000000e+00    
           4.83803004e-01     5.28982282e-01     0.00000000e+00    
           4.84254897e-01     5.30844331e-01     0.00000000e+00    
           4.84246761e-01     5.32760441e-01     0.00000000e+00    
           4.82887864e-01     4.67691004e-01     0.00000000e+00    
           4.81620818e-01     4.69110936e-01     0.00000000e+00    
           4.80051905e-01     4.70188022e-01     0.00000000e+00    
           4.78271484e-01     4.70860153e-01     0.00000000e+00    
           4.76382166e-01     4.71088618e-01     0.00000000e+00    
           4.74492878e-01     4.70860243e-01     0.00000000e+00    
           4.72712427e-01     4.70188200e-01     0.00000000e+00    
           4.71143454e-01     4.69111174e-01     0.00000000e+00    
           4.69876349e-01     4.67691302e-01     0.00000000e+00    
           4.88103986e-01     5.33086061e-01     0.00000000e+00    
           4.87431526e-01     5.31323195e-01     0.00000000e+00    
           4.87231195e-01     5.29447019e-01     0.00000000e+00    
           4.87516224e-01     5.27581930e-01     0.00000000e+00    
           4.88267750e-01     5.25851250e-01     0.00000000e+00    
           4.89436030e-01     5.24369657e-01     0.00000000e+00    
           4.90943670e-01     5.23235261e-01     0.00000000e+00    
           4.92690891e-01     5.22523046e-01     0.00000000e+00    
           4.96432930e-01     5.22523701e-01     0.00000000e+00    
           4.98180002e-01     5.23235798e-01     0.00000000e+00    
           4.99687493e-01     5.24370134e-01     0.00000000e+00    
           5.00855684e-01     5.25851607e-01     0.00000000e+00    
           5.01607120e-01     5.27582109e-01     0.00000000e+00    
           5.01892149e-01     5.29447079e-01     0.00000000e+00    
           5.01691818e-01     5.31323016e-01     0.00000000e+00    
           5.01019418e-01     5.33085763e-01     0.00000000e+00    
           4.98371124e-01     4.67269689e-01     0.00000000e+00    
           4.96539861e-01     4.68064904e-01     0.00000000e+00    
           4.94562000e-01     4.68336672e-01     0.00000000e+00    
           4.92584139e-01     4.68064904e-01     0.00000000e+00    
           4.90752876e-01     4.67269689e-01     0.00000000e+00    
           5.32269001e-01     4.75995690e-01     0.00000000e+00    
           5.31541944e-01     4.77750987e-01     0.00000000e+00    
           5.30385315e-01     4.79258329e-01     0.00000000e+00    
           5.28877974e-01     4.80414927e-01     0.00000000e+00    
[...]
      <PointData>
        <DataArray type="Float32" Name="Displacement" NumberOfComponents="3">
           1.42207963e-03     6.46930304e-04     0.00000000e+00    
           1.40068668e-03     6.29247574e-04     0.00000000e+00    
           8.28853626e-06     6.48699817e-04     0.00000000e+00    
           1.48697372e-05     6.32283161e-04     0.00000000e+00    
           2.75197126e-05     6.45834138e-04     0.00000000e+00    
           1.91486976e-03     6.32283161e-04     0.00000000e+00    
           1.90828857e-03     6.48699817e-04     0.00000000e+00    
           2.82202032e-04     9.43355379e-04     0.00000000e+00    
           2.59962952e-04     9.42728599e-04     0.00000000e+00    
           2.72364705e-04     9.28352063e-04     0.00000000e+00    
           2.59962952e-04    -7.27139059e-06     0.00000000e+00    
           2.82202032e-04    -6.64460185e-06     0.00000000e+00    
           6.98256365e-04     8.93606222e-04     0.00000000e+00    
           6.80525962e-04     9.02720552e-04     0.00000000e+00    
           6.78894226e-04     8.82230932e-04     0.00000000e+00    
           6.80525962e-04    -4.72794236e-05     0.00000000e+00    
           6.98256365e-04    -5.63937865e-05     0.00000000e+00    
           1.70307234e-03     1.36415532e-04     0.00000000e+00    
           1.68177625e-03     1.31759138e-04     0.00000000e+00    
           1.74399209e-03     8.18238361e-04     0.00000000e+00    
           1.74515054e-03     8.30923265e-04     0.00000000e+00    
           1.72332465e-03     8.25998432e-04     0.00000000e+00    
          -1.54849404e-04     8.30923265e-04     0.00000000e+00    
          -1.56007867e-04     8.18238361e-04     0.00000000e+00    
           4.59181261e-04     7.46514474e-04     0.00000000e+00    
           4.36247647e-04     7.51359737e-04     0.00000000e+00    
           1.33511948e-03     8.25933239e-04     0.00000000e+00    
           1.31540792e-03     8.17521999e-04     0.00000000e+00    
           9.71631089e-04     3.11310781e-04     0.00000000e+00    
           9.51379130e-04     3.18249076e-04     0.00000000e+00    
           1.51658285e-04     1.80531410e-04     0.00000000e+00    
           1.61697957e-04     1.70703235e-04     0.00000000e+00    
           1.76077738e-04     1.89578757e-04     0.00000000e+00    
           2.06169789e-03     1.70703235e-04     0.00000000e+00    
           2.05165823e-03     1.80531410e-04     0.00000000e+00    
           1.78920862e-04     4.60274430e-04     0.00000000e+00    
           1.57799324e-04     4.37202136e-04     0.00000000e+00    
           4.99325397e-04     2.08450714e-04     0.00000000e+00    
           4.77787922e-04     2.03632211e-04     0.00000000e+00    
           1.00965612e-03     4.03733866e-04     0.00000000e+00    
           9.89616849e-04     4.38639370e-04     0.00000000e+00    
           1.66854635e-03     5.14505489e-04     0.00000000e+00    
           1.64588052e-03     5.11671416e-04     0.00000000e+00    
           5.44064736e-04     5.22125396e-04     0.00000000e+00    
           5.23283961e-04     5.22363523e-04     0.00000000e+00    
           1.50467234e-03     3.42588959e-04     0.00000000e+00    
           1.48126739e-03     3.45136330e-04     0.00000000e+00    
           0.00000000e+00     9.50000016e-04     0.00000000e+00    
           0.00000000e+00     0.00000000e+00     0.00000000e+00    
           1.90000003e-03     0.00000000e+00     0.00000000e+00    
           1.90000003e-03     9.50000016e-04     0.00000000e+00    
           1.41938473e-03     6.49372465e-04     0.00000000e+00    
           1.41634652e-03     6.50575268e-04     0.00000000e+00    
           1.41293125e-03     6.51288545e-04     0.00000000e+00    
           1.40933471e-03     6.51609327e-04     0.00000000e+00    
           1.40540511e-03     6.50805887e-04     0.00000000e+00    
           1.40169344e-03     6.48690271e-04     0.00000000e+00    
           1.39935280e-03     6.45854103e-04     0.00000000e+00    
           1.39778003e-03     6.42733590e-04     0.00000000e+00    
           1.39666593e-03     6.39067381e-04     0.00000000e+00    
           1.39706000e-03     6.35128876e-04     0.00000000e+00    
           1.39841519e-03     6.31837291e-04     0.00000000e+00    
           1.40328472e-03     6.27212517e-04     0.00000000e+00    
           1.40656182e-03     6.26055931e-04     0.00000000e+00    
           1.40988687e-03     6.25581306e-04     0.00000000e+00    
           1.41353300e-03     6.25450688e-04     0.00000000e+00    
           1.41759298e-03     6.26452209e-04     0.00000000e+00    
           1.42179034e-03     6.28673239e-04     0.00000000e+00    
           1.42471353e-03     6.32285140e-04     0.00000000e+00    
           1.42588129e-03     6.36100885e-04     0.00000000e+00    
           1.42572366e-03     6.39147067e-04     0.00000000e+00    
           1.42487430e-03     6.41805062e-04     0.00000000e+00    
           1.42361864e-03     6.44385000e-04     0.00000000e+00    
           1.83323209e-05     6.31217554e-04     0.00000000e+00    
           2.19239701e-05     6.32110925e-04     0.00000000e+00    
           2.43148224e-05     6.33681018e-04     0.00000000e+00    
           2.62494414e-05     6.35541626e-04     0.00000000e+00    
           2.77795334e-05     6.38045836e-04     0.00000000e+00    
           2.85189344e-05     6.40792190e-04     0.00000000e+00    
           2.82619276e-05     6.43542560e-04     0.00000000e+00    
           2.61795467e-05     6.47667504e-04     0.00000000e+00    
           2.46500440e-05     6.49150636e-04     0.00000000e+00    
           2.26697630e-05     6.50659960e-04     0.00000000e+00    
           2.03070667e-05     6.51766022e-04     0.00000000e+00    
           1.74114011e-05     6.52442046e-04     0.00000000e+00    
           1.37925463e-05     6.52527553e-04     0.00000000e+00    
           1.04072406e-05     6.50654663e-04     0.00000000e+00    
           1.90706342e-03     6.46777393e-04     0.00000000e+00    
           1.90611044e-03     6.44693791e-04     0.00000000e+00    
           1.90559775e-03     6.41827879e-04     0.00000000e+00    
           1.90589554e-03     6.39029313e-04     0.00000000e+00    
           1.90725131e-03     6.36439770e-04     0.00000000e+00    
           1.90898252e-03     6.34621887e-04     0.00000000e+00    
           1.91086181e-03     6.33652438e-04     0.00000000e+00    
           1.91275601e-03     6.33033051e-04     0.00000000e+00    
           2.59521563e-04     9.40059137e-04     0.00000000e+00    
           2.59777822e-04     9.37762263e-04     0.00000000e+00    
           2.60467554e-04     9.35690885e-04     0.00000000e+00    
           2.61532172e-04     9.33571020e-04     0.00000000e+00    
           2.63214781e-04     9.31588642e-04     0.00000000e+00    
           2.65669194e-04     9.29733214e-04     0.00000000e+00    
           2.68959528e-04     9.28394031e-04     0.00000000e+00    
           2.75578903e-04     9.29328380e-04     0.00000000e+00    
           2.77644896e-04     9.30451963e-04     0.00000000e+00    
           2.79504457e-04     9.31732066e-04     0.00000000e+00    
           2.81156943e-04     9.33312869e-04     0.00000000e+00    
           2.82447116e-04     9.35850956e-04     0.00000000e+00    
           2.82899739e-04     9.38357727e-04     0.00000000e+00    
           2.82892986e-04     9.40784987e-04     0.00000000e+00    
           2.80940527e-04    -4.31437547e-06     0.00000000e+00    
           2.79212691e-04    -2.12467512e-06     0.00000000e+00    
           2.76669423e-04    -4.08459897e-07     0.00000000e+00    
           2.73266720e-04     9.72598968e-07     0.00000000e+00    
           2.69945216e-04     7.33343995e-07     0.00000000e+00    
           2.67275376e-04     2.65974123e-08     0.00000000e+00    
           2.65034672e-04    -8.85700956e-07     0.00000000e+00    
           2.62938847e-04    -2.42632927e-06     0.00000000e+00    
           2.60940578e-04    -4.72820102e-06     0.00000000e+00    
           6.77989796e-04     9.01273976e-04     0.00000000e+00    
           6.75850082e-04     8.99416220e-04     0.00000000e+00    
           6.74187730e-04     8.97250080e-04     0.00000000e+00    
           6.73021015e-04     8.94455647e-04     0.00000000e+00    
           6.73026370e-04     8.91711330e-04     0.00000000e+00    
           6.73378585e-04     8.89426679e-04     0.00000000e+00    
           6.74226496e-04     8.87115777e-04     0.00000000e+00    
           6.75729010e-04     8.84629844e-04     0.00000000e+00    
           6.82931859e-04     8.81053100e-04     0.00000000e+00    
           6.86581945e-04     8.81374755e-04     0.00000000e+00    
           6.89661480e-04     8.82233318e-04     0.00000000e+00    
           6.92106842e-04     8.83235713e-04     0.00000000e+00    
           6.94066403e-04     8.84359411e-04     0.00000000e+00    
           6.95949362e-04     8.85815069e-04     0.00000000e+00    
           6.97439245e-04     8.87884700e-04     0.00000000e+00    
           6.98228658e-04     8.90499272e-04     0.00000000e+00    
           6.97305135e-04    -5.30434627e-05     0.00000000e+00    
           6.94990566e-04    -4.97569235e-05     0.00000000e+00    
           6.91486639e-04    -4.71553758e-05     0.00000000e+00    
           6.87394408e-04    -4.62602911e-05     0.00000000e+00    
           6.83878898e-04    -4.64135665e-05     0.00000000e+00    
           1.70195382e-03     1.38090996e-04     0.00000000e+00    
           1.70069048e-03     1.39322539e-04     0.00000000e+00    
           1.69922668e-03     1.40624921e-04     0.00000000e+00    
           1.69668777e-03     1.42630030e-04     0.00000000e+00    
           1.69303268e-03     1.43736834e-04     0.00000000e+00    
           1.68955640e-03     1.43370955e-04     0.00000000e+00    
           1.68697082e-03     1.42365578e-04     0.00000000e+00    
           1.68510480e-03     1.41067532e-04     0.00000000e+00    
           1.68368744e-03     1.39532378e-04     0.00000000e+00    
           1.68227288e-03     1.37385141e-04     0.00000000e+00    
           1.68157299e-03     1.34689224e-04     0.00000000e+00    
           1.68265367e-03     1.29238964e-04     0.00000000e+00    
           1.68422062e-03     1.26690327e-04     0.00000000e+00    
           1.68641377e-03     1.24566490e-04     0.00000000e+00    
           1.68936164e-03     1.23107558e-04     0.00000000e+00    
           1.69268285e-03     1.22721074e-04     0.00000000e+00    
           1.69563072e-03     1.23156657e-04     0.00000000e+00    
           1.69830804e-03     1.24170605e-04     0.00000000e+00    
           1.70087186e-03     1.25760926e-04     0.00000000e+00    
           1.70284288e-03     1.28545245e-04     0.00000000e+00    
           1.70374219e-03     1.31553155e-04     0.00000000e+00    
           1.70379342e-03     1.34223461e-04     0.00000000e+00    
           1.74342387e-03     8.33272876e-04     0.00000000e+00    
           1.74099312e-03     8.35349667e-04     0.00000000e+00    
           1.73774979e-03     8.36853927e-04     0.00000000e+00    
           1.73427328e-03     8.37080821e-04     0.00000000e+00    
           1.73097034e-03     8.36579478e-04     0.00000000e+00    
           1.72790827e-03     8.35045299e-04     0.00000000e+00    
           1.72576832e-03     8.32482125e-04     0.00000000e+00    
           1.72441034e-03     8.29949800e-04     0.00000000e+00    
           1.72372232e-03     8.27861310e-04     0.00000000e+00    
           1.72327913e-03     8.23888753e-04     0.00000000e+00    
           1.72386749e-03     8.21824011e-04     0.00000000e+00    
           1.72497437e-03     8.19666369e-04     0.00000000e+00    
           1.72695960e-03     8.17315420e-04     0.00000000e+00    
           1.72954809e-03     8.15423497e-04     0.00000000e+00    
           1.73344836e-03     8.14230298e-04     0.00000000e+00    
           1.73705944e-03     8.14626983e-04     0.00000000e+00    
           1.73987297e-03     8.15598993e-04     0.00000000e+00    
           1.74202700e-03     8.16762098e-04     0.00000000e+00    
          -1.54588648e-04     8.20180168e-04     0.00000000e+00    
          -1.53618093e-04     8.22376343e-04     0.00000000e+00    
          -1.53311892e-04     8.24592949e-04     0.00000000e+00    
          -1.53484463e-04     8.26860080e-04     0.00000000e+00    
          -1.53977802e-04     8.28772259e-04     0.00000000e+00    
           4.59402014e-04     7.49143423e-04     0.00000000e+00    
           4.59046656e-04     7.51783140e-04     0.00000000e+00    
           4.57840622e-04     7.53800268e-04     0.00000000e+00    
           4.56666894e-04     7.55535031e-04     0.00000000e+00    
           4.54839261e-04     7.57331902e-04     0.00000000e+00    
           4.51762869e-04     7.59312650e-04     0.00000000e+00    
           4.48174338e-04     7.59575341e-04     0.00000000e+00    
           4.45428101e-04     7.59240356e-04     0.00000000e+00    
           4.42993129e-04     7.58739363e-04     0.00000000e+00    
           4.40732867e-04     7.57881673e-04     0.00000000e+00    
           4.38442949e-04     7.56134919e-04     0.00000000e+00    
           4.37040115e-04     7.53603235e-04     0.00000000e+00    
           4.35976312e-04     7.48948427e-04     0.00000000e+00    
           4.36136179e-04     7.46704463e-04     0.00000000e+00    
           4.36805276e-04     7.44078658e-04     0.00000000e+00    
           4.38379415e-04     7.41359079e-04     0.00000000e+00    
           4.40932374e-04     7.39144918e-04     0.00000000e+00    
           4.44365636e-04     7.37854571e-04     0.00000000e+00    
           4.47076280e-04     7.37507129e-04     0.00000000e+00    
           4.49682499e-04     7.37472903e-04     0.00000000e+00    
           4.52509994e-04     7.38121395e-04     0.00000000e+00    
           4.54997295e-04     7.39700103e-04     0.00000000e+00    
           4.57030052e-04     7.41806696e-04     0.00000000e+00    
           4.58437600e-04     7.44119345e-04     0.00000000e+00    
           1.33375812e-03     8.27769982e-04     0.00000000e+00    
           1.33165461e-03     8.29468481e-04     0.00000000e+00    
           1.32896903e-03     8.30791309e-04     0.00000000e+00    
           1.32587238e-03     8.31533631e-04     0.00000000e+00    
           1.32226071e-03     8.31341255e-04     0.00000000e+00    
           1.31875975e-03     8.29976401e-04     0.00000000e+00    
           1.31601223e-03     8.27601587e-04     0.00000000e+00    
           1.31450628e-03     8.24764487e-04     0.00000000e+00    
           1.31386635e-03     8.21932103e-04     0.00000000e+00    
           1.31438603e-03     8.19457637e-04     0.00000000e+00    
           1.31676265e-03     8.15863255e-04     0.00000000e+00    
           1.31859118e-03     8.14115163e-04     0.00000000e+00    
           1.32116245e-03     8.12521554e-04     0.00000000e+00    
           1.32470275e-03     8.11011647e-04     0.00000000e+00    
           1.32878067e-03     8.11419857e-04     0.00000000e+00    
           1.33172562e-03     8.12866841e-04     0.00000000e+00    
           1.33395719e-03     8.14740313e-04     0.00000000e+00    
           1.33605895e-03     8.17491848e-04     0.00000000e+00    
           1.33660634e-03     8.21052759e-04     0.00000000e+00    
           1.33612321e-03     8.23832583e-04     0.00000000e+00    
           9.72386333e-04     3.13225260e-04     0.00000000e+00    
           9.72403795e-04     3.15432786e-04     0.00000000e+00    
           9.72051290e-04     3.18388396e-04     0.00000000e+00    
           9.70004883e-04     3.21342464e-04     0.00000000e+00    
           9.67804284e-04     3.23185930e-04     0.00000000e+00    
           9.65732848e-04     3.24474153e-04     0.00000000e+00    
           9.63053026e-04     3.25288129e-04     0.00000000e+00    
           9.59368190e-04     3.25245550e-04     0.00000000e+00    
           9.56134696e-04     3.23533546e-04     0.00000000e+00    
           9.54023446e-04     3.21744476e-04     0.00000000e+00    
           9.52466857e-04     3.20017250e-04     0.00000000e+00    
           9.50637390e-04     3.16591846e-04     0.00000000e+00    
           9.50286631e-04     3.14586505e-04     0.00000000e+00    
           9.50398971e-04     3.12100397e-04     0.00000000e+00    
           9.51501948e-04     3.09404102e-04     0.00000000e+00    
           9.53773677e-04     3.06746777e-04     0.00000000e+00    
           9.57300130e-04     3.04729154e-04     0.00000000e+00    
           9.60922509e-04     3.04322137e-04     0.00000000e+00    
           9.64299543e-04     3.05020541e-04     0.00000000e+00    
           9.67060740e-04     3.06452916e-04     0.00000000e+00    
           9.69054818e-04     3.07893642e-04     0.00000000e+00    
           9.70616820e-04     3.09579889e-04     0.00000000e+00    
           1.64622485e-04     1.70101965e-04     0.00000000e+00    
           1.68023034e-04     1.69580031e-04     0.00000000e+00    
           1.71810156e-04     1.70274347e-04     0.00000000e+00    
           1.75103065e-04     1.72388420e-04     0.00000000e+00    
           1.77198119e-04     1.74823101e-04     0.00000000e+00    
           1.78508722e-04     1.77501512e-04     0.00000000e+00    
           1.79566399e-04     1.80745425e-04     0.00000000e+00    
           1.79328475e-04     1.84654273e-04     0.00000000e+00    
           1.77946087e-04     1.87598169e-04     0.00000000e+00    
           1.73963243e-04     1.91152081e-04     0.00000000e+00    
           1.71618391e-04     1.92550622e-04     0.00000000e+00    
           1.68719314e-04     1.94024775e-04     0.00000000e+00    
           1.65278427e-04     1.94894266e-04     0.00000000e+00    
           1.61492659e-04     1.94272507e-04     0.00000000e+00    
           1.58459239e-04     1.92771869e-04     0.00000000e+00    
           1.55684218e-04     1.90738574e-04     0.00000000e+00    
           1.53431552e-04     1.87725978e-04     0.00000000e+00    
           1.51938671e-04     1.84213452e-04     0.00000000e+00    
           2.05249526e-03     1.77084265e-04     0.00000000e+00    
           2.05417746e-03     1.74226283e-04     0.00000000e+00    
           2.05657631e-03     1.72336746e-04     0.00000000e+00    
           2.05913861e-03     1.71356645e-04     0.00000000e+00    
           1.75501045e-04     4.61640419e-04     0.00000000e+00    
           1.71983658e-04     4.62137687e-04     0.00000000e+00    
           1.68552229e-04     4.62323806e-04     0.00000000e+00    
           1.64641897e-04     4.62079071e-04     0.00000000e+00    
           1.60285534e-04     4.61023417e-04     0.00000000e+00    
           1.56555499e-04     4.58552182e-04     0.00000000e+00    
           1.53980349e-04     4.54956724e-04     0.00000000e+00    
           1.52746492e-04     4.51270724e-04     0.00000000e+00    
           1.52330613e-04     4.47243074e-04     0.00000000e+00    
           1.53059256e-04     4.43318597e-04     0.00000000e+00    
           1.55092042e-04     4.39800409e-04     0.00000000e+00    
           1.60879834e-04     4.35379508e-04     0.00000000e+00    
           1.64315701e-04     4.33878391e-04     0.00000000e+00    
           1.68413128e-04     4.32983652e-04     0.00000000e+00    
           1.72673317e-04     4.33481036e-04     0.00000000e+00    
           1.76577087e-04     4.35035909e-04     0.00000000e+00    
           1.79814291e-04     4.37602634e-04     0.00000000e+00    
           1.82488307e-04     4.40760021e-04     0.00000000e+00    
           1.84219243e-04     4.44943929e-04     0.00000000e+00    
           1.84788078e-04     4.49461018e-04     0.00000000e+00    