<?xml version="1.0"?>
<VTKFile type="UnstructuredGrid" version="0.1">
  <UnstructuredGrid>
    <Piece NumberOfPoints="1034" NumberOfCells="1614">
      <Points>
        <DataArray type="Float32" NumberOfComponents="3">
           5.21582007e-01     5.11657000e-01     0.00000000e+00    
           5.07319987e-01     5.11657000e-01     0.00000000e+00    
           4.65243995e-01     5.17907977e-01     0.00000000e+00    
           4.65243995e-01     5.04921973e-01     0.00000000e+00    
           4.75246996e-01     5.11415005e-01     0.00000000e+00    
           5.33852994e-01     5.04921973e-01     0.00000000e+00    
           5.33852994e-01     5.17907977e-01     0.00000000e+00    
           4.83779997e-01     5.34618974e-01     0.00000000e+00    
           4.68984991e-01     5.34618974e-01     0.00000000e+00    
           4.76381987e-01     5.23841977e-01     0.00000000e+00    
           4.68984991e-01     4.66010004e-01     0.00000000e+00    
           4.83779997e-01     4.66010004e-01     0.00000000e+00    
           4.99920011e-01     5.34618974e-01     0.00000000e+00    
           4.89203990e-01     5.34618974e-01     0.00000000e+00    
           4.94562000e-01     5.22280991e-01     0.00000000e+00    
           4.89203990e-01     4.66010004e-01     0.00000000e+00    
           4.99920011e-01     4.66010004e-01     0.00000000e+00    
           5.32517016e-01     4.74112004e-01     0.00000000e+00    
           5.17961025e-01     4.74112004e-01     0.00000000e+00    
           5.33852994e-01     5.19801974e-01     0.00000000e+00    
           5.33852994e-01     5.29603004e-01     0.00000000e+00    
           5.19536972e-01     5.24702013e-01     0.00000000e+00    
           4.65243995e-01     5.29603004e-01     0.00000000e+00    
           4.65243995e-01     5.19801974e-01     0.00000000e+00    
           4.92487997e-01     5.17117977e-01     0.00000000e+00    
           4.76904988e-01     5.17117977e-01     0.00000000e+00    
           5.17996013e-01     5.27033985e-01     0.00000000e+00    
           5.04473984e-01     5.27033985e-01     0.00000000e+00    
           5.08446991e-01     4.83435005e-01     0.00000000e+00    
           4.94414002e-01     4.83435005e-01     0.00000000e+00    
           4.65243995e-01     4.83101994e-01     0.00000000e+00    
           4.65243995e-01     4.74415004e-01     0.00000000e+00    
           4.78336990e-01     4.78758007e-01     0.00000000e+00    
           5.33852994e-01     4.74415004e-01     0.00000000e+00    
           5.33852994e-01     4.83101994e-01     0.00000000e+00    
           4.80668008e-01     4.95810986e-01     0.00000000e+00    
           4.66084987e-01     4.95810986e-01     0.00000000e+00    
           4.93930012e-01     4.79214013e-01     0.00000000e+00    
           4.78967011e-01     4.79214013e-01     0.00000000e+00    
           5.09284973e-01     4.97658014e-01     0.00000000e+00    
           4.95503992e-01     4.97658014e-01     0.00000000e+00    
           5.33011973e-01     5.01751006e-01     0.00000000e+00    
           5.17829001e-01     5.01751006e-01     0.00000000e+00    
           4.95451003e-01     5.00564992e-01     0.00000000e+00    
           4.80922014e-01     5.00564992e-01     0.00000000e+00    
           5.25367022e-01     4.88312006e-01     0.00000000e+00    
           5.09521008e-01     4.88312006e-01     0.00000000e+00    
           4.65243995e-01     5.34618974e-01     0.00000000e+00    
           4.65243995e-01     4.66010004e-01     0.00000000e+00    
           5.33852994e-01     4.66010004e-01     0.00000000e+00    
           5.33852994e-01     5.34618974e-01     0.00000000e+00    
           5.21338999e-01     5.13502657e-01     0.00000000e+00    
           5.20626605e-01     5.15222490e-01     0.00000000e+00    
           5.19493401e-01     5.16699374e-01     0.00000000e+00    
           5.18016517e-01     5.17832637e-01     0.00000000e+00    
           5.16296625e-01     5.18545032e-01     0.00000000e+00    
           5.14451027e-01     5.18787980e-01     0.00000000e+00    
           5.12605369e-01     5.18545032e-01     0.00000000e+00    
           5.10885477e-01     5.17832637e-01     0.00000000e+00    
           5.09408593e-01     5.16699374e-01     0.00000000e+00    
           5.08275390e-01     5.15222490e-01     0.00000000e+00    
           5.07562995e-01     5.13502657e-01     0.00000000e+00    
           5.07562995e-01     5.09811342e-01     0.00000000e+00    
           5.08275390e-01     5.08091509e-01     0.00000000e+00    
           5.09408593e-01     5.06614625e-01     0.00000000e+00    
           5.10885477e-01     5.05481362e-01     0.00000000e+00    
           5.12605369e-01     5.04768968e-01     0.00000000e+00    
           5.14451027e-01     5.04526019e-01     0.00000000e+00    
           5.16296625e-01     5.04768968e-01     0.00000000e+00    
           5.18016517e-01     5.05481362e-01     0.00000000e+00    
           5.19493401e-01     5.06614625e-01     0.00000000e+00    
           5.20626605e-01     5.08091509e-01     0.00000000e+00    
           5.21338999e-01     5.09811342e-01     0.00000000e+00    
           4.66931671e-01     5.04409373e-01     0.00000000e+00    
           4.68693614e-01     5.04328012e-01     0.00000000e+00    
           4.70421344e-01     5.04682958e-01     0.00000000e+00    
           4.72008497e-01     5.05452335e-01     0.00000000e+00    
           4.73357379e-01     5.06588817e-01     0.00000000e+00    
           4.74384934e-01     5.08022368e-01     0.00000000e+00    
           4.75027919e-01     5.09664834e-01     0.00000000e+00    
           4.75028187e-01     5.13165236e-01     0.00000000e+00    
           4.74385172e-01     5.14807761e-01     0.00000000e+00    
           4.73357558e-01     5.16241372e-01     0.00000000e+00    
           4.72008646e-01     5.17377913e-01     0.00000000e+00    
           4.70421433e-01     5.18147290e-01     0.00000000e+00    
           4.68693614e-01     5.18502235e-01     0.00000000e+00    
           4.66931641e-01     5.18420875e-01     0.00000000e+00    
           5.32303810e-01     5.16964078e-01     0.00000000e+00    
           5.31043947e-01     5.15658796e-01     0.00000000e+00    
           5.30155540e-01     5.14077127e-01     0.00000000e+00    
           5.29696345e-01     5.12322068e-01     0.00000000e+00    
           5.29696345e-01     5.10507941e-01     0.00000000e+00    
           5.30155540e-01     5.08752882e-01     0.00000000e+00    
           5.31043947e-01     5.07171214e-01     0.00000000e+00    
           5.32303810e-01     5.05865932e-01     0.00000000e+00    
           4.68517244e-01     5.32760799e-01     0.00000000e+00    
           4.68509018e-01     5.30844629e-01     0.00000000e+00    
           4.68960851e-01     5.28982460e-01     0.00000000e+00    
           4.69846308e-01     5.27283132e-01     0.00000000e+00    
           4.71113682e-01     5.25845945e-01     0.00000000e+00    
           4.72688884e-01     5.24754822e-01     0.00000000e+00    
           4.74479854e-01     5.24073541e-01     0.00000000e+00    
           4.78284091e-01     5.24073601e-01     0.00000000e+00    
           4.80075032e-01     5.24754822e-01     0.00000000e+00    
           4.81650203e-01     5.25845885e-01     0.00000000e+00    
           4.82917547e-01     5.27283013e-01     0.00000000e+00    
           4.83803004e-01     5.28982282e-01     0.00000000e+00    
           4.84254897e-01     5.30844331e-01     0.00000000e+00    
           4.84246761e-01     5.32760441e-01     0.00000000e+00    
           4.82887864e-01     4.67691004e-01     0.00000000e+00    
           4.81620818e-01     4.69110936e-01     0.00000000e+00    
           4.80051905e-01     4.70188022e-01     0.00000000e+00    
           4.78271484e-01     4.70860153e-01     0.00000000e+00    
           4.76382166e-01     4.71088618e-01     0.00000000e+00    
           4.74492878e-01     4.70860243e-01     0.00000000e+00    
           4.72712427e-01     4.70188200e-01     0.00000000e+00    
           4.71143454e-01     4.69111174e-01     0.00000000e+00    
           4.69876349e-01     4.67691302e-01     0.00000000e+00    
           4.88103986e-01     5.33086061e-01     0.00000000e+00    
           4.87431526e-01     5.31323195e-01     0.00000000e+00    
           4.87231195e-01     5.29447019e-01     0.00000000e+00    
           4.87516224e-01     5.27581930e-01     0.00000000e+00    
           4.88267750e-01     5.25851250e-01     0.00000000e+00    
           4.89436030e-01     5.24369657e-01     0.00000000e+00    
           4.90943670e-01     5.23235261e-01     0.00000000e+00    
           4.92690891e-01     5.22523046e-01     0.00000000e+00    
           4.96432930e-01     5.22523701e-01     0.00000000e+00    
           4.98180002e-01     5.23235798e-01     0.00000000e+00    
           4.99687493e-01     5.24370134e-01     0.00000000e+00    
           5.00855684e-01     5.25851607e-01     0.00000000e+00    
           5.01607120e-01     5.27582109e-01     0.00000000e+00    
           5.01892149e-01     5.29447079e-01     0.00000000e+00    
           5.01691818e-01     5.31323016e-01     0.00000000e+00    
           5.01019418e-01     5.33085763e-01     0.00000000e+00    
           4.98371124e-01     4.67269689e-01     0.00000000e+00    
           4.96539861e-01     4.68064904e-01     0.00000000e+00    
           4.94562000e-01     4.68336672e-01     0.00000000e+00    
           4.92584139e-01     4.68064904e-01     0.00000000e+00    
           4.90752876e-01     4.67269689e-01     0.00000000e+00    
           5.32269001e-01     4.75995690e-01     0.00000000e+00    
           5.31541944e-01     4.77750987e-01     0.00000000e+00    
           5.30385315e-01     4.79258329e-01     0.00000000e+00    
           5.28877974e-01     4.80414927e-01     0.00000000e+00    
[...]
      <PointData>
        <DataArray type="Float32" Name="Displacement" NumberOfComponents="3">
           1.86712760e-03     8.53307778e-04     0.00000000e+00    
           1.84579368e-03     8.21571623e-04     0.00000000e+00    
           4.39787436e-05     8.44392576e-04     0.00000000e+00    
           5.20599824e-05     8.27832788e-04     0.00000000e+00    
           6.39420541e-05     8.42433772e-04     0.00000000e+00    
           2.55205994e-03     8.27832788e-04     0.00000000e+00    
           2.54397886e-03     8.44392576e-04     0.00000000e+00    
           3.84189247e-04     1.23630406e-03     0.00000000e+00    
           3.61994986e-04     1.23398611e-03     0.00000000e+00    
           3.75453790e-04     1.22020068e-03     0.00000000e+00    
           3.61994986e-04    -1.60139407e-05     0.00000000e+00    
           3.84189247e-04    -1.36959006e-05     0.00000000e+00    
           9.56157630e-04     1.17643015e-03     0.00000000e+00    
           9.38804122e-04     1.18553836e-03     0.00000000e+00    
           9.36821045e-04     1.16431317e-03     0.00000000e+00    
           9.38804122e-04    -6.44616084e-05     0.00000000e+00    
           9.56157630e-04    -7.35698632e-05     0.00000000e+00    
           2.23869947e-03     1.71215535e-04     0.00000000e+00    
           2.21741945e-03     1.64935904e-04     0.00000000e+00    
           2.30606063e-03     1.07957644e-03     0.00000000e+00    
           2.30329437e-03     1.09240983e-03     0.00000000e+00    
           2.28344044e-03     1.08168169e-03     0.00000000e+00    
          -1.96705601e-04     1.09240983e-03     0.00000000e+00    
          -1.93939326e-04     1.07957644e-03     0.00000000e+00    
           6.33226999e-04     9.66407766e-04     0.00000000e+00    
           6.10279501e-04     9.71614965e-04     0.00000000e+00    
           1.75212184e-03     1.08383689e-03     0.00000000e+00    
           1.73247524e-03     1.08318171e-03     0.00000000e+00    
           1.29022612e-03     4.08118824e-04     0.00000000e+00    
           1.27003249e-03     4.02430218e-04     0.00000000e+00    
           2.10168815e-04     2.35295913e-04     0.00000000e+00    
           2.23676601e-04     2.25226904e-04     0.00000000e+00    
           2.36290172e-04     2.49505800e-04     0.00000000e+00    
           2.72367662e-03     2.25226904e-04     0.00000000e+00    
           2.71016872e-03     2.35295913e-04     0.00000000e+00    
           2.52789148e-04     5.87299641e-04     0.00000000e+00    
           2.31627782e-04     5.68912015e-04     0.00000000e+00    
           6.83620281e-04     2.74161866e-04     0.00000000e+00    
           6.62150094e-04     2.63754016e-04     0.00000000e+00    
           1.32828765e-03     5.26878342e-04     0.00000000e+00    
           1.30839692e-03     5.66646631e-04     0.00000000e+00    
           2.21198867e-03     6.67184475e-04     0.00000000e+00    
           2.18945555e-03     6.64900639e-04     0.00000000e+00    
           7.40048359e-04     6.69690082e-04     0.00000000e+00    
           7.19349366e-04     6.74130279e-04     0.00000000e+00    
           1.99805549e-03     4.37928131e-04     0.00000000e+00    
           1.97472284e-03     4.48722538e-04     0.00000000e+00    
           0.00000000e+00     1.24999997e-03     0.00000000e+00    
           0.00000000e+00     0.00000000e+00     0.00000000e+00    
           2.49999994e-03     0.00000000e+00     0.00000000e+00    
           2.49999994e-03     1.24999997e-03     0.00000000e+00    
           1.86261046e-03     8.55463906e-04     0.00000000e+00    
           1.85788295e-03     8.55978869e-04     0.00000000e+00    
           1.85302063e-03     8.55616992e-04     0.00000000e+00    
           1.84829114e-03     8.54532758e-04     0.00000000e+00    
           1.84367306e-03     8.52002820e-04     0.00000000e+00    
           1.83976779e-03     8.48080264e-04     0.00000000e+00    
           1.83762854e-03     8.43421440e-04     0.00000000e+00    
           1.83675799e-03     8.38598353e-04     0.00000000e+00    
           1.83682179e-03     8.33523285e-04     0.00000000e+00    
           1.83866068e-03     8.28470394e-04     0.00000000e+00    
           1.84169528e-03     8.24442715e-04     0.00000000e+00    
           1.85020547e-03     8.19765963e-04     0.00000000e+00    
           1.85517257e-03     8.19269102e-04     0.00000000e+00    
           1.85997016e-03     8.19830631e-04     0.00000000e+00    
           1.86479429e-03     8.21016263e-04     0.00000000e+00    
           1.86958723e-03     8.23736307e-04     0.00000000e+00    
           1.87388679e-03     8.27822136e-04     0.00000000e+00    
           1.87648018e-03     8.33185448e-04     0.00000000e+00    
           1.87698670e-03     8.38802487e-04     0.00000000e+00    
           1.87574234e-03     8.43363116e-04     0.00000000e+00    
           1.87344512e-03     8.47177987e-04     0.00000000e+00    
           1.87049969e-03     8.50497221e-04     0.00000000e+00    
           5.55136903e-05     8.27007578e-04     0.00000000e+00    
           5.90440286e-05     8.28045944e-04     0.00000000e+00    
           6.14333403e-05     8.29817436e-04     0.00000000e+00    
           6.32856245e-05     8.31855403e-04     0.00000000e+00    
           6.46522458e-05     8.34468170e-04     0.00000000e+00    
           6.52429298e-05     8.37264990e-04     0.00000000e+00    
           6.48416535e-05     8.40082124e-04     0.00000000e+00    
           6.24282911e-05     8.44335358e-04     0.00000000e+00    
           6.07044967e-05     8.45876348e-04     0.00000000e+00    
           5.85110065e-05     8.47371877e-04     0.00000000e+00    
           5.59638283e-05     8.48364667e-04     0.00000000e+00    
           5.29783647e-05     8.48796219e-04     0.00000000e+00    
           4.94465785e-05     8.48632655e-04     0.00000000e+00    
           4.61193667e-05     8.46614537e-04     0.00000000e+00    
           2.54281051e-03     8.42245412e-04     0.00000000e+00    
           2.54194881e-03     8.39950226e-04     0.00000000e+00    
           2.54167267e-03     8.37002823e-04     0.00000000e+00    
           2.54220027e-03     8.34208389e-04     0.00000000e+00    
           2.54374323e-03     8.31641257e-04     0.00000000e+00    
           2.54568481e-03     8.29852826e-04     0.00000000e+00    
           2.54775048e-03     8.28960037e-04     0.00000000e+00    
           2.54980358e-03     8.28456017e-04     0.00000000e+00    
           3.61743965e-04     1.23129832e-03     0.00000000e+00    
           3.62163759e-04     1.22898084e-03     0.00000000e+00    
           3.63037369e-04     1.22685824e-03     0.00000000e+00    
           3.64301755e-04     1.22470688e-03     0.00000000e+00    
           3.66217428e-04     1.22280512e-03     0.00000000e+00    
           3.68803361e-04     1.22114329e-03     0.00000000e+00    
           3.72094801e-04     1.22005935e-03     0.00000000e+00    
           3.78654076e-04     1.22140232e-03     0.00000000e+00    
           3.80716607e-04     1.22278358e-03     0.00000000e+00    
           3.82494123e-04     1.22428325e-03     0.00000000e+00    
           3.84006067e-04     1.22603984e-03     0.00000000e+00    
           3.85137799e-04     1.22869457e-03     0.00000000e+00    
           3.85418738e-04     1.23134756e-03     0.00000000e+00    
           3.85153049e-04     1.23384455e-03     0.00000000e+00    
           3.82756814e-04    -1.16078882e-05     0.00000000e+00    
           3.80965241e-04    -9.66154403e-06     0.00000000e+00    
           3.78346362e-04    -8.08765071e-06     0.00000000e+00    
           3.74861294e-04    -6.85608347e-06     0.00000000e+00    
           3.71488684e-04    -7.28313762e-06     0.00000000e+00    
           3.68766370e-04    -8.20846890e-06     0.00000000e+00    
           3.66547145e-04    -9.34023410e-06     0.00000000e+00    
           3.64574807e-04    -1.10500605e-05     0.00000000e+00    
           3.62804538e-04    -1.34262964e-05     0.00000000e+00    
           9.36207827e-04     1.18413742e-03     0.00000000e+00    
           9.33973351e-04     1.18221960e-03     0.00000000e+00    
           9.32291499e-04     1.17994845e-03     0.00000000e+00    
           9.31115297e-04     1.17709278e-03     0.00000000e+00    
           9.31081944e-04     1.17432850e-03     0.00000000e+00    
           9.31382237e-04     1.17196527e-03     0.00000000e+00    
           9.32198775e-04     1.16953172e-03     0.00000000e+00    
           9.33733536e-04     1.16683764e-03     0.00000000e+00    
           9.40668688e-04     1.16300117e-03     0.00000000e+00    
           9.44310392e-04     1.16319163e-03     0.00000000e+00    
           9.47489578e-04     1.16410607e-03     0.00000000e+00    
           9.50079819e-04     1.16528489e-03     0.00000000e+00    
           9.52088623e-04     1.16669829e-03     0.00000000e+00    
           9.53980139e-04     1.16835686e-03     0.00000000e+00    
           9.55456635e-04     1.17060135e-03     0.00000000e+00    
           9.56183241e-04     1.17330090e-03     0.00000000e+00    
           9.55184049e-04    -7.02734469e-05     0.00000000e+00    
           9.52959410e-04    -6.70866284e-05     0.00000000e+00    
           9.49588721e-04    -6.45232358e-05     0.00000000e+00    
           9.45611799e-04    -6.35904435e-05     0.00000000e+00    
           9.42142622e-04    -6.36798795e-05     0.00000000e+00    
           2.23741867e-03     1.72929795e-04     0.00000000e+00    
           2.23601190e-03     1.74172834e-04     0.00000000e+00    
           2.23439885e-03     1.75571025e-04     0.00000000e+00    
           2.23178091e-03     1.77398382e-04     0.00000000e+00    
           2.22825003e-03     1.78319882e-04     0.00000000e+00    
           2.22478434e-03     1.77856869e-04     0.00000000e+00    
           2.22200109e-03     1.76468035e-04     0.00000000e+00    
           2.22010259e-03     1.74876943e-04     0.00000000e+00    
           2.21872539e-03     1.73074484e-04     0.00000000e+00    
           2.21742364e-03     1.70698026e-04     0.00000000e+00    
           2.21695146e-03     1.67854058e-04     0.00000000e+00    
           2.21852143e-03     1.62506592e-04     0.00000000e+00    
           2.22023972e-03     1.60160023e-04     0.00000000e+00    
           2.22251238e-03     1.58209368e-04     0.00000000e+00    
           2.22550961e-03     1.56904891e-04     0.00000000e+00    
           2.22885539e-03     1.56649869e-04     0.00000000e+00    
           2.23185448e-03     1.57241346e-04     0.00000000e+00    
           2.23455811e-03     1.58437135e-04     0.00000000e+00    
           2.23706872e-03     1.60213400e-04     0.00000000e+00    
           2.23888783e-03     1.63088756e-04     0.00000000e+00    
           2.23966292e-03     1.66170386e-04     0.00000000e+00    
           2.23957375e-03     1.68938990e-04     0.00000000e+00    
           2.30095140e-03     1.09422463e-03     0.00000000e+00    
           2.29813904e-03     1.09557004e-03     0.00000000e+00    
           2.29476485e-03     1.09631766e-03     0.00000000e+00    
           2.29118927e-03     1.09580928e-03     0.00000000e+00    
           2.28794548e-03     1.09449879e-03     0.00000000e+00    
           2.28532124e-03     1.09224243e-03     0.00000000e+00    
           2.28374847e-03     1.08921714e-03     0.00000000e+00    
           2.28299852e-03     1.08625134e-03     0.00000000e+00    
           2.28304090e-03     1.08375167e-03     0.00000000e+00    
           2.28419132e-03     1.07956852e-03     0.00000000e+00    
           2.28554802e-03     1.07770110e-03     0.00000000e+00    
           2.28734547e-03     1.07588223e-03     0.00000000e+00    
           2.28991709e-03     1.07403263e-03     0.00000000e+00    
           2.29290896e-03     1.07292423e-03     0.00000000e+00    
           2.29679025e-03     1.07262796e-03     0.00000000e+00    
           2.30023731e-03     1.07377127e-03     0.00000000e+00    
           2.30288715e-03     1.07561634e-03     0.00000000e+00    
           2.30464758e-03     1.07750704e-03     0.00000000e+00    
          -1.93172891e-04     1.08186400e-03     0.00000000e+00    
          -1.92883148e-04     1.08420686e-03     0.00000000e+00    
          -1.93249885e-04     1.08647731e-03     0.00000000e+00    
          -1.94059248e-04     1.08868210e-03     0.00000000e+00    
          -1.95207875e-04     1.09047943e-03     0.00000000e+00    
           6.33480842e-04     9.69006564e-04     0.00000000e+00    
           6.33180549e-04     9.71640577e-04     0.00000000e+00    
           6.31979608e-04     9.73700255e-04     0.00000000e+00    
           6.30802417e-04     9.75476345e-04     0.00000000e+00    
           6.28967711e-04     9.77322692e-04     0.00000000e+00    
           6.25949935e-04     9.79335862e-04     0.00000000e+00    
           6.22391817e-04     9.79644712e-04     0.00000000e+00    
           6.19619794e-04     9.79309436e-04     0.00000000e+00    
           6.17152662e-04     9.78822936e-04     0.00000000e+00    
           6.14844379e-04     9.77974269e-04     0.00000000e+00    
           6.12576725e-04     9.76275303e-04     0.00000000e+00    
           6.11129624e-04     9.73851187e-04     0.00000000e+00    
           6.09935611e-04     9.69149522e-04     0.00000000e+00    
           6.10066403e-04     9.66795022e-04     0.00000000e+00    
           6.10748364e-04     9.64028761e-04     0.00000000e+00    
           6.12336968e-04     9.61307378e-04     0.00000000e+00    
           6.14819757e-04     9.59116616e-04     0.00000000e+00    
           6.18169957e-04     9.57752753e-04     0.00000000e+00    
           6.20988721e-04     9.57389537e-04     0.00000000e+00    
           6.23726577e-04     9.57385288e-04     0.00000000e+00    
           6.26592664e-04     9.58068529e-04     0.00000000e+00    
           6.29050890e-04     9.59657540e-04     0.00000000e+00    
           6.31060684e-04     9.61740501e-04     0.00000000e+00    
           6.32469426e-04     9.64033999e-04     0.00000000e+00    
           1.75190344e-03     1.08596077e-03     0.00000000e+00    
           1.75080576e-03     1.08822598e-03     0.00000000e+00    
           1.74896710e-03     1.09036395e-03     0.00000000e+00    
           1.74647907e-03     1.09206513e-03     0.00000000e+00    
           1.74334657e-03     1.09286874e-03     0.00000000e+00    
           1.74012152e-03     1.09272834e-03     0.00000000e+00    
           1.73707167e-03     1.09163113e-03     0.00000000e+00    
           1.73480273e-03     1.08969479e-03     0.00000000e+00    
           1.73318328e-03     1.08744740e-03     0.00000000e+00    
           1.73259736e-03     1.08516787e-03     0.00000000e+00    
           1.73271180e-03     1.08115317e-03     0.00000000e+00    
           1.73359283e-03     1.07883092e-03     0.00000000e+00    
           1.73535931e-03     1.07653090e-03     0.00000000e+00    
           1.73817936e-03     1.07423821e-03     0.00000000e+00    
           1.74183131e-03     1.07362925e-03     0.00000000e+00    
           1.74479675e-03     1.07402727e-03     0.00000000e+00    
           1.74735044e-03     1.07487047e-03     0.00000000e+00    
           1.74998306e-03     1.07662869e-03     0.00000000e+00    
           1.75141974e-03     1.07940217e-03     0.00000000e+00    
           1.75198843e-03     1.08180288e-03     0.00000000e+00    
           1.28930202e-03     4.09905100e-04     0.00000000e+00    
           1.28774100e-03     4.11591434e-04     0.00000000e+00    
           1.28600188e-03     4.13696544e-04     0.00000000e+00    
           1.28290593e-03     4.15210670e-04     0.00000000e+00    
           1.28008972e-03     4.15424380e-04     0.00000000e+00    
           1.27780519e-03     4.15040180e-04     0.00000000e+00    
           1.27534254e-03     4.14239301e-04     0.00000000e+00    
           1.27240969e-03     4.12737485e-04     0.00000000e+00    
           1.27026869e-03     4.09684435e-04     0.00000000e+00    
           1.26949174e-03     4.06889361e-04     0.00000000e+00    
           1.26948126e-03     4.04482940e-04     0.00000000e+00    
           1.27098954e-03     4.00865334e-04     0.00000000e+00    
           1.27222750e-03     3.99364071e-04     0.00000000e+00    
           1.27373706e-03     3.97689117e-04     0.00000000e+00    
           1.27599644e-03     3.96249670e-04     0.00000000e+00    
           1.27896760e-03     3.95195064e-04     0.00000000e+00    
           1.28262118e-03     3.94967152e-04     0.00000000e+00    
           1.28586730e-03     3.96269461e-04     0.00000000e+00    
           1.28848047e-03     3.98453412e-04     0.00000000e+00    
           1.29018631e-03     4.01171652e-04     0.00000000e+00    
           1.29087269e-03     4.03670332e-04     0.00000000e+00    
           1.29089295e-03     4.06073465e-04     0.00000000e+00    
           2.27135417e-04     2.25043623e-04     0.00000000e+00    
           2.30909965e-04     2.25164229e-04     0.00000000e+00    
           2.34852239e-04     2.26579708e-04     0.00000000e+00    
           2.38224296e-04     2.29483790e-04     0.00000000e+00    
           2.40237525e-04     2.32699880e-04     0.00000000e+00    
           2.41272763e-04     2.36086460e-04     0.00000000e+00    
           2.41804737e-04     2.39877889e-04     0.00000000e+00    
           2.40947484e-04     2.44164054e-04     0.00000000e+00    
           2.38882945e-04     2.47408083e-04     0.00000000e+00    
           2.33459126e-04     2.51019315e-04     0.00000000e+00    
           2.30443111e-04     2.52199621e-04     0.00000000e+00    
           2.26979842e-04     2.53206585e-04     0.00000000e+00    
           2.23180468e-04     2.53458973e-04     0.00000000e+00    
           2.19072113e-04     2.52267550e-04     0.00000000e+00    
           2.15745895e-04     2.50089128e-04     0.00000000e+00    
           2.12899147e-04     2.47307180e-04     0.00000000e+00    
           2.10888888e-04     2.43528091e-04     0.00000000e+00    
           2.09889593e-04     2.39412504e-04     0.00000000e+00    
           2.71164370e-03     2.31503727e-04     0.00000000e+00    
           2.71402579e-03     2.28425939e-04     0.00000000e+00    
           2.71717296e-03     2.26470424e-04     0.00000000e+00    
           2.72045704e-03     2.25619719e-04     0.00000000e+00    
           2.49987730e-04     5.88835333e-04     0.00000000e+00    
           2.47043179e-04     5.89651172e-04     0.00000000e+00    
           2.44085881e-04     5.90341573e-04     0.00000000e+00    
           2.40543930e-04     5.90586627e-04     0.00000000e+00    
           2.36536216e-04     5.90054318e-04     0.00000000e+00    
           2.32957755e-04     5.88255585e-04     0.00000000e+00    
           2.30215737e-04     5.85233734e-04     0.00000000e+00    
           2.28669771e-04     5.82048669e-04     0.00000000e+00    
           2.27847719e-04     5.78460458e-04     0.00000000e+00    
           2.28036064e-04     5.74842561e-04     0.00000000e+00    
           2.29493235e-04     5.71440323e-04     0.00000000e+00    
           2.34104504e-04     5.67036972e-04     0.00000000e+00    
           2.36958556e-04     5.65400580e-04     0.00000000e+00    
           2.40443725e-04     5.64254529e-04     0.00000000e+00    
           2.44189287e-04     5.64264948e-04     0.00000000e+00    
           2.47884193e-04     5.65122464e-04     0.00000000e+00    
           2.51196034e-04     5.67053736e-04     0.00000000e+00    
           2.54135521e-04     5.69648051e-04     0.00000000e+00    
           2.56112777e-04     5.73370955e-04     0.00000000e+00    
           2.56983272e-04     5.77418599e-04     0.00000000e+00    