<?xml version="1.0"?>
<VTKFile type="UnstructuredGrid" version="0.1">
  <UnstructuredGrid>
    <Piece NumberOfPoints="1034" NumberOfCells="1614">
      <Points>
        <DataArray type="Float32" NumberOfComponents="3">
           5.21582007e-01     5.11657000e-01     0.00000000e+00    
           5.07319987e-01     5.11657000e-01     0.00000000e+00    
           4.65243995e-01     5.17907977e-01     0.00000000e+00    
           4.65243995e-01     5.04921973e-01     0.00000000e+00    
           4.75246996e-01     5.11415005e-01     0.00000000e+00    
           5.33852994e-01     5.04921973e-01     0.00000000e+00    
           5.33852994e-01     5.17907977e-01     0.00000000e+00    
           4.83779997e-01     5.34618974e-01     0.00000000e+00    
           4.68984991e-01     5.34618974e-01     0.00000000e+00    
           4.76381987e-01     5.23841977e-01     0.00000000e+00    
           4.68984991e-01     4.66010004e-01     0.00000000e+00    
           4.83779997e-01     4.66010004e-01     0.00000000e+00    
           4.99920011e-01     5.34618974e-01     0.00000000e+00    
           4.89203990e-01     5.34618974e-01     0.00000000e+00    
           4.94562000e-01     5.22280991e-01     0.00000000e+00    
           4.89203990e-01     4.66010004e-01     0.00000000e+00    
           4.99920011e-01     4.66010004e-01     0.00000000e+00    
           5.32517016e-01     4.74112004e-01     0.00000000e+00    
           5.17961025e-01     4.74112004e-01     0.00000000e+00    
           5.33852994e-01     5.19801974e-01     0.00000000e+00    
           5.33852994e-01     5.29603004e-01     0.00000000e+00    
           5.19536972e-01     5.24702013e-01     0.00000000e+00    
           4.65243995e-01     5.29603004e-01     0.00000000e+00    
           4.65243995e-01     5.19801974e-01     0.00000000e+00    
           4.92487997e-01     5.17117977e-01     0.00000000e+00    
           4.76904988e-01     5.17117977e-01     0.00000000e+00    
           5.17996013e-01     5.27033985e-01     0.00000000e+00    
           5.04473984e-01     5.27033985e-01     0.00000000e+00    
           5.08446991e-01     4.83435005e-01     0.00000000e+00    
           4.94414002e-01     4.83435005e-01     0.00000000e+00    
           4.65243995e-01     4.83101994e-01     0.00000000e+00    
           4.65243995e-01     4.74415004e-01     0.00000000e+00    
           4.78336990e-01     4.78758007e-01     0.00000000e+00    
           5.33852994e-01     4.74415004e-01     0.00000000e+00    
           5.33852994e-01     4.83101994e-01     0.00000000e+00    
           4.80668008e-01     4.95810986e-01     0.00000000e+00    
           4.66084987e-01     4.95810986e-01     0.00000000e+00    
           4.93930012e-01     4.79214013e-01     0.00000000e+00    
           4.78967011e-01     4.79214013e-01     0.00000000e+00    
           5.09284973e-01     4.97658014e-01     0.00000000e+00    
           4.95503992e-01     4.97658014e-01     0.00000000e+00    
           5.33011973e-01     5.01751006e-01     0.00000000e+00    
           5.17829001e-01     5.01751006e-01     0.00000000e+00    
           4.95451003e-01     5.00564992e-01     0.00000000e+00    
           4.80922014e-01     5.00564992e-01     0.00000000e+00    
           5.25367022e-01     4.88312006e-01     0.00000000e+00    
           5.09521008e-01     4.88312006e-01     0.00000000e+00    
           4.65243995e-01     5.34618974e-01     0.00000000e+00    
           4.65243995e-01     4.66010004e-01     0.00000000e+00    
           5.33852994e-01     4.66010004e-01     0.00000000e+00    
           5.33852994e-01     5.34618974e-01     0.00000000e+00    
           5.21338999e-01     5.13502657e-01     0.00000000e+00    
           5.20626605e-01     5.15222490e-01     0.00000000e+00    
           5.19493401e-01     5.16699374e-01     0.00000000e+00    
           5.18016517e-01     5.17832637e-01     0.00000000e+00    
           5.16296625e-01     5.18545032e-01     0.00000000e+00    
           5.14451027e-01     5.18787980e-01     0.00000000e+00    
           5.12605369e-01     5.18545032e-01     0.00000000e+00    
           5.10885477e-01     5.17832637e-01     0.00000000e+00    
           5.09408593e-01     5.16699374e-01     0.00000000e+00    
           5.08275390e-01     5.15222490e-01     0.00000000e+00    
           5.07562995e-01     5.13502657e-01     0.00000000e+00    
           5.07562995e-01     5.09811342e-01     0.00000000e+00    
           5.08275390e-01     5.08091509e-01     0.00000000e+00    
           5.09408593e-01     5.06614625e-01     0.00000000e+00    
           5.10885477e-01     5.05481362e-01     0.00000000e+00    
           5.12605369e-01     5.04768968e-01     0.00000000e+00    
           5.14451027e-01     5.04526019e-01     0.00000000e+00    
           5.16296625e-01     5.04768968e-01     0.00000000e+00    
           5.18016517e-01     5.05481362e-01     0.00000000e+00    
           5.19493401e-01     5.06614625e-01     0.00000000e+00    
           5.20626605e-01     5.08091509e-01     0.00000000e+00    
           5.21338999e-01     5.09811342e-01     0.00000000e+00    
           4.66931671e-01     5.04409373e-01     0.00000000e+00    
           4.68693614e-01     5.04328012e-01     0.00000000e+00    
           4.70421344e-01     5.04682958e-01     0.00000000e+00    
           4.72008497e-01     5.05452335e-01     0.00000000e+00    
           4.73357379e-01     5.06588817e-01     0.00000000e+00    
           4.74384934e-01     5.08022368e-01     0.00000000e+00    
           4.75027919e-01     5.09664834e-01     0.00000000e+00    
           4.75028187e-01     5.13165236e-01     0.00000000e+00    
           4.74385172e-01     5.14807761e-01     0.00000000e+00    
           4.73357558e-01     5.16241372e-01     0.00000000e+00    
           4.72008646e-01     5.17377913e-01     0.00000000e+00    
           4.70421433e-01     5.18147290e-01     0.00000000e+00    
           4.68693614e-01     5.18502235e-01     0.00000000e+00    
           4.66931641e-01     5.18420875e-01     0.00000000e+00    
           5.32303810e-01     5.16964078e-01     0.00000000e+00    
           5.31043947e-01     5.15658796e-01     0.00000000e+00    
           5.30155540e-01     5.14077127e-01     0.00000000e+00    
           5.29696345e-01     5.12322068e-01     0.00000000e+00    
           5.29696345e-01     5.10507941e-01     0.00000000e+00    
           5.30155540e-01     5.08752882e-01     0.00000000e+00    
           5.31043947e-01     5.07171214e-01     0.00000000e+00    
           5.32303810e-01     5.05865932e-01     0.00000000e+00    
           4.68517244e-01     5.32760799e-01     0.00000000e+00    
           4.68509018e-01     5.30844629e-01     0.00000000e+00    
           4.68960851e-01     5.28982460e-01     0.00000000e+00    
           4.69846308e-01     5.27283132e-01     0.00000000e+00    
           4.71113682e-01     5.25845945e-01     0.00000000e+00    
           4.72688884e-01     5.24754822e-01     0.00000000e+00    
           4.74479854e-01     5.24073541e-01     0.00000000e+00    
           4.78284091e-01     5.24073601e-01     0.00000000e+00    
           4.80075032e-01     5.24754822e-01     0.00000000e+00    
           4.81650203e-01     5.25845885e-01     0.00000000e+00    
           4.82917547e-01     5.27283013e-01     0.00000000e+00    
           4.83803004e-01     5.28982282e-01     0.00000000e+00    
           4.84254897e-01     5.30844331e-01     0.00000000e+00    
           4.84246761e-01     5.32760441e-01     0.00000000e+00    
           4.82887864e-01     4.67691004e-01     0.00000000e+00    
           4.81620818e-01     4.69110936e-01     0.00000000e+00    
           4.80051905e-01     4.70188022e-01     0.00000000e+00    
           4.78271484e-01     4.70860153e-01     0.00000000e+00    
           4.76382166e-01     4.71088618e-01     0.00000000e+00    
           4.74492878e-01     4.70860243e-01     0.00000000e+00    
           4.72712427e-01     4.70188200e-01     0.00000000e+00    
           4.71143454e-01     4.69111174e-01     0.00000000e+00    
           4.69876349e-01     4.67691302e-01     0.00000000e+00    
           4.88103986e-01     5.33086061e-01     0.00000000e+00    
           4.87431526e-01     5.31323195e-01     0.00000000e+00    
           4.87231195e-01     5.29447019e-01     0.00000000e+00    
           4.87516224e-01     5.27581930e-01     0.00000000e+00    
           4.88267750e-01     5.25851250e-01     0.00000000e+00    
           4.89436030e-01     5.24369657e-01     0.00000000e+00    
           4.90943670e-01     5.23235261e-01     0.00000000e+00    
           4.92690891e-01     5.22523046e-01     0.00000000e+00    
           4.96432930e-01     5.22523701e-01     0.00000000e+00    
           4.98180002e-01     5.23235798e-01     0.00000000e+00    
           4.99687493e-01     5.24370134e-01     0.00000000e+00    
           5.00855684e-01     5.25851607e-01     0.00000000e+00    
           5.01607120e-01     5.27582109e-01     0.00000000e+00    
           5.01892149e-01     5.29447079e-01     0.00000000e+00    
           5.01691818e-01     5.31323016e-01     0.00000000e+00    
           5.01019418e-01     5.33085763e-01     0.00000000e+00    
           4.98371124e-01     4.67269689e-01     0.00000000e+00    
           4.96539861e-01     4.68064904e-01     0.00000000e+00    
           4.94562000e-01     4.68336672e-01     0.00000000e+00    
           4.92584139e-01     4.68064904e-01     0.00000000e+00    
           4.90752876e-01     4.67269689e-01     0.00000000e+00    
           5.32269001e-01     4.75995690e-01     0.00000000e+00    
           5.31541944e-01     4.77750987e-01     0.00000000e+00    
           5.30385315e-01     4.79258329e-01     0.00000000e+00    
           5.28877974e-01     4.80414927e-01     0.00000000e+00    
[...]
      <PointData>
        <DataArray type="Float32" Name="Displacement" NumberOfComponents="3">
           5.75319398e-04     2.46245530e-04     0.00000000e+00    
           5.59580280e-04     2.39570974e-04     0.00000000e+00    
          -2.63844559e-05     2.63608206e-04     0.00000000e+00    
          -2.45330066e-05     2.49210425e-04     0.00000000e+00    
          -1.13291617e-05     2.60594563e-04     0.00000000e+00    
           7.25466991e-04     2.49210425e-04     0.00000000e+00    
           7.23615522e-04     2.63608206e-04     0.00000000e+00    
           1.07366512e-04     3.66018852e-04     0.00000000e+00    
           9.03525433e-05     3.71714355e-04     0.00000000e+00    
           9.57074080e-05     3.59282509e-04     0.00000000e+00    
           9.03525433e-05    -3.28563124e-06     0.00000000e+00    
           1.07366512e-04    -8.98114922e-06     0.00000000e+00    
           2.67001538e-04     3.28100316e-04     0.00000000e+00    
           2.52508471e-04     3.43555817e-04     0.00000000e+00    
           2.41028509e-04     3.26902431e-04     0.00000000e+00    
           2.52508471e-04    -3.14441786e-05     0.00000000e+00    
           2.67001538e-04    -4.68996986e-05     0.00000000e+00    
           6.84664235e-04     7.66377707e-05     0.00000000e+00    
           6.66472479e-04     7.35215945e-05     0.00000000e+00    
           6.79425139e-04     3.19869054e-04     0.00000000e+00    
           6.84174476e-04     3.29999079e-04     0.00000000e+00    
           6.62344915e-04     3.30716313e-04     0.00000000e+00    
          -6.58255449e-05     3.29999079e-04     0.00000000e+00    
          -7.05748389e-05     3.19869054e-04     0.00000000e+00    
           1.58727242e-04     2.98582803e-04     0.00000000e+00    
           1.40769465e-04     3.05572234e-04     0.00000000e+00    
           5.30432328e-04     3.27041926e-04     0.00000000e+00    
           5.10410289e-04     3.07198439e-04     0.00000000e+00    
           3.73617600e-04     1.29205320e-04     0.00000000e+00    
           3.53335141e-04     1.28662447e-04     0.00000000e+00    
           5.89160882e-05     7.46293153e-05     0.00000000e+00    
           5.52899401e-05     6.82728132e-05     0.00000000e+00    
           7.56789232e-05     6.84193292e-05     0.00000000e+00    
           8.05289950e-04     6.82728132e-05     0.00000000e+00    
           8.08916113e-04     7.46293153e-05     0.00000000e+00    
           6.92813192e-05     2.01960982e-04     0.00000000e+00    
           4.99568450e-05     1.83517477e-04     0.00000000e+00    
           1.95839457e-04     8.43379094e-05     0.00000000e+00    
           1.73800712e-04     7.88575999e-05     0.00000000e+00    
           3.85293475e-04     1.59701274e-04     0.00000000e+00    
           3.65806220e-04     1.77739697e-04     0.00000000e+00    
           6.50876493e-04     2.10815459e-04     0.00000000e+00    
           6.30973547e-04     2.11289007e-04     0.00000000e+00    
           2.08470592e-04     2.10454571e-04     0.00000000e+00    
           1.87247671e-04     2.10728685e-04     0.00000000e+00    
           5.68173127e-04     1.53151777e-04     0.00000000e+00    
           5.47387986e-04     1.40239514e-04     0.00000000e+00    
           0.00000000e+00     3.75000003e-04     0.00000000e+00    
           0.00000000e+00     0.00000000e+00     0.00000000e+00    
           7.50000007e-04     0.00000000e+00     0.00000000e+00    
           7.50000007e-04     3.75000003e-04     0.00000000e+00    
           5.73725789e-04     2.48570606e-04     0.00000000e+00    
           5.72326418e-04     2.50095647e-04     0.00000000e+00    
           5.70636126e-04     2.51109945e-04     0.00000000e+00    
           5.68522257e-04     2.51393154e-04     0.00000000e+00    
           5.66051225e-04     2.51254882e-04     0.00000000e+00    
           5.63419715e-04     2.50616140e-04     0.00000000e+00    
           5.61849680e-04     2.49280536e-04     0.00000000e+00    
           5.60778833e-04     2.47255783e-04     0.00000000e+00    
           5.59705251e-04     2.45038304e-04     0.00000000e+00    
           5.59134933e-04     2.43019516e-04     0.00000000e+00    
           5.59140928e-04     2.41216869e-04     0.00000000e+00    
           5.60385583e-04     2.37981672e-04     0.00000000e+00    
           5.61590423e-04     2.36697713e-04     0.00000000e+00    
           5.63136535e-04     2.35893211e-04     0.00000000e+00    
           5.65029331e-04     2.35675077e-04     0.00000000e+00    
           5.67611773e-04     2.35840722e-04     0.00000000e+00    
           5.70930541e-04     2.36424792e-04     0.00000000e+00    
           5.74238249e-04     2.37412693e-04     0.00000000e+00    
           5.76895603e-04     2.38437759e-04     0.00000000e+00    
           5.77882631e-04     2.39690096e-04     0.00000000e+00    
           5.78033098e-04     2.41533227e-04     0.00000000e+00    
           5.76814520e-04     2.43711096e-04     0.00000000e+00    
          -2.09075915e-05     2.48783297e-04     0.00000000e+00    
          -1.75362820e-05     2.49667530e-04     0.00000000e+00    
          -1.55255548e-05     2.50846118e-04     0.00000000e+00    
          -1.39990379e-05     2.52630503e-04     0.00000000e+00    
          -1.28843585e-05     2.54879618e-04     0.00000000e+00    
          -1.19754204e-05     2.56938394e-04     0.00000000e+00    
          -1.15139710e-05     2.58944463e-04     0.00000000e+00    
          -1.17344134e-05     2.61601555e-04     0.00000000e+00    
          -1.26398309e-05     2.62153626e-04     0.00000000e+00    
          -1.42001991e-05     2.62730027e-04     0.00000000e+00    
          -1.63425102e-05     2.63210415e-04     0.00000000e+00    
          -1.87289679e-05     2.63635302e-04     0.00000000e+00    
          -2.15241580e-05     2.63949914e-04     0.00000000e+00    
          -2.43170871e-05     2.63754016e-04     0.00000000e+00    
           7.22575351e-04     2.62729533e-04     0.00000000e+00    
           7.22324476e-04     2.61107343e-04     0.00000000e+00    
           7.22200435e-04     2.58296699e-04     0.00000000e+00    
           7.21974589e-04     2.55787250e-04     0.00000000e+00    
           7.21760385e-04     2.53293605e-04     0.00000000e+00    
           7.21709046e-04     2.51319405e-04     0.00000000e+00    
           7.22333090e-04     2.50206445e-04     0.00000000e+00    
           7.23661389e-04     2.49499746e-04     0.00000000e+00    
           8.86539856e-05     3.69752001e-04     0.00000000e+00    
           8.75078185e-05     3.67864472e-04     0.00000000e+00    
           8.69856958e-05     3.66489228e-04     0.00000000e+00    
           8.72628807e-05     3.65133863e-04     0.00000000e+00    
           8.84014298e-05     3.63596686e-04     0.00000000e+00    
           9.04174158e-05     3.61984683e-04     0.00000000e+00    
           9.30183232e-05     3.60468548e-04     0.00000000e+00    
           9.88698666e-05     3.58077785e-04     0.00000000e+00    
           1.01102240e-04     3.57499346e-04     0.00000000e+00    
           1.02912738e-04     3.57917277e-04     0.00000000e+00    
           1.04591272e-04     3.59303027e-04     0.00000000e+00    
           1.06452499e-04     3.60959588e-04     0.00000000e+00    
           1.07482490e-04     3.62385064e-04     0.00000000e+00    
           1.07823995e-04     3.63869854e-04     0.00000000e+00    
           1.06560845e-04    -6.74196190e-06     0.00000000e+00    
           1.05606123e-04    -4.46159447e-06     0.00000000e+00    
           1.04267419e-04    -2.60360457e-06     0.00000000e+00    
           1.02170801e-04    -9.32965918e-07     0.00000000e+00    
           9.97123061e-05     3.93822859e-07     0.00000000e+00    
           9.74636350e-05     1.30302431e-06     0.00000000e+00    
           9.57662487e-05     1.23454856e-06     0.00000000e+00    
           9.40711689e-05    -5.32699111e-08     0.00000000e+00    
           9.20708189e-05    -1.66433392e-06     0.00000000e+00    
           2.48549128e-04     3.43745749e-04     0.00000000e+00    
           2.44894240e-04     3.43405089e-04     0.00000000e+00    
           2.41802598e-04     3.42368556e-04     0.00000000e+00    
           2.39387737e-04     3.40279774e-04     0.00000000e+00    
           2.37398926e-04     3.36885219e-04     0.00000000e+00    
           2.36373162e-04     3.34001874e-04     0.00000000e+00    
           2.36489126e-04     3.31427756e-04     0.00000000e+00    
           2.37786080e-04     3.29074363e-04     0.00000000e+00    
           2.44957686e-04     3.24855617e-04     0.00000000e+00    
           2.49093515e-04     3.23414482e-04     0.00000000e+00    
           2.53186852e-04     3.22509644e-04     0.00000000e+00    
           2.56759376e-04     3.21857835e-04     0.00000000e+00    
           2.59926950e-04     3.21186410e-04     0.00000000e+00    
           2.62912887e-04     3.21355765e-04     0.00000000e+00    
           2.65209499e-04     3.22429929e-04     0.00000000e+00    
           2.66633288e-04     3.24870198e-04     0.00000000e+00    
           2.66396150e-04    -4.33978930e-05     0.00000000e+00    
           2.64902948e-04    -3.99365490e-05     0.00000000e+00    
           2.62699905e-04    -3.67957182e-05     0.00000000e+00    
           2.59778142e-04    -3.42506864e-05     0.00000000e+00    
           2.56468571e-04    -3.24315297e-05     0.00000000e+00    
           6.84105034e-04     7.79905677e-05     0.00000000e+00    
           6.82811835e-04     7.88446196e-05     0.00000000e+00    
           6.80985453e-04     7.92864812e-05     0.00000000e+00    
           6.77575765e-04     8.06076132e-05     0.00000000e+00    
           6.73666480e-04     8.15635067e-05     0.00000000e+00    
           6.70259120e-04     8.19724082e-05     0.00000000e+00    
           6.67891931e-04     8.19916968e-05     0.00000000e+00    
           6.66535925e-04     8.14583109e-05     0.00000000e+00    
           6.65908388e-04     8.02587965e-05     0.00000000e+00    
           6.65666943e-04     7.80579649e-05     0.00000000e+00    
           6.65866362e-04     7.57361049e-05     0.00000000e+00    
           6.67394721e-04     7.16744980e-05     0.00000000e+00    
           6.68723660e-04     6.99403172e-05     0.00000000e+00    
           6.70289388e-04     6.86323547e-05     0.00000000e+00    
           6.72119728e-04     6.76926138e-05     0.00000000e+00    
           6.74194656e-04     6.71808448e-05     0.00000000e+00    
           6.76069059e-04     6.70360168e-05     0.00000000e+00    
           6.77748816e-04     6.75800911e-05     0.00000000e+00    
           6.79500517e-04     6.87859720e-05     0.00000000e+00    
           6.81311067e-04     7.05540224e-05     0.00000000e+00    
           6.82839251e-04     7.25554855e-05     0.00000000e+00    
           6.84130995e-04     7.46882652e-05     0.00000000e+00    
           6.82733662e-04     3.31751682e-04     0.00000000e+00    
           6.80620025e-04     3.33531614e-04     0.00000000e+00    
           6.78205222e-04     3.35335208e-04     0.00000000e+00    
           6.75882271e-04     3.36321391e-04     0.00000000e+00    
           6.73607516e-04     3.36519006e-04     0.00000000e+00    
           6.70733163e-04     3.35832301e-04     0.00000000e+00    
           6.67696993e-04     3.34320648e-04     0.00000000e+00    
           6.65072643e-04     3.32977506e-04     0.00000000e+00    
           6.63280021e-04     3.31887743e-04     0.00000000e+00    
           6.62250677e-04     3.29001370e-04     0.00000000e+00    
           6.62923558e-04     3.26850917e-04     0.00000000e+00    
           6.63976767e-04     3.24967230e-04     0.00000000e+00    
           6.65557338e-04     3.23652901e-04     0.00000000e+00    
           6.67555956e-04     3.22533015e-04     0.00000000e+00    
           6.70454814e-04     3.21305852e-04     0.00000000e+00    
           6.73424918e-04     3.20119929e-04     0.00000000e+00    
           6.76085532e-04     3.18809354e-04     0.00000000e+00    
           6.78070879e-04     3.18754639e-04     0.00000000e+00    
          -6.92096000e-05     3.21829721e-04     0.00000000e+00    
          -6.78180877e-05     3.23826825e-04     0.00000000e+00    
          -6.65242187e-05     3.25677509e-04     0.00000000e+00    
          -6.57109340e-05     3.27382819e-04     0.00000000e+00    
          -6.54116884e-05     3.28648137e-04     0.00000000e+00    
           1.59843257e-04     3.00529180e-04     0.00000000e+00    
           1.60882992e-04     3.03232518e-04     0.00000000e+00    
           1.61483913e-04     3.05562920e-04     0.00000000e+00    
           1.61208474e-04     3.07540875e-04     0.00000000e+00    
           1.59853036e-04     3.09228577e-04     0.00000000e+00    
           1.56731548e-04     3.10743897e-04     0.00000000e+00    
           1.53222805e-04     3.11772106e-04     0.00000000e+00    
           1.50222055e-04     3.12592427e-04     0.00000000e+00    
           1.47934043e-04     3.12561839e-04     0.00000000e+00    
           1.46287537e-04     3.11590207e-04     0.00000000e+00    
           1.44287696e-04     3.09621682e-04     0.00000000e+00    
           1.42389472e-04     3.07394279e-04     0.00000000e+00    
           1.39708398e-04     3.03871231e-04     0.00000000e+00    
           1.39433367e-04     3.02503642e-04     0.00000000e+00    
           1.40061427e-04     3.01028893e-04     0.00000000e+00    
           1.41739220e-04     2.99065985e-04     0.00000000e+00    
           1.44016260e-04     2.97171908e-04     0.00000000e+00    
           1.46716557e-04     2.95375328e-04     0.00000000e+00    
           1.48605948e-04     2.94145604e-04     0.00000000e+00    
           1.50080581e-04     2.93740450e-04     0.00000000e+00    
           1.51876127e-04     2.94243451e-04     0.00000000e+00    
           1.53780245e-04     2.95124133e-04     0.00000000e+00    
           1.55665926e-04     2.96074548e-04     0.00000000e+00    
           1.57367132e-04     2.97160441e-04     0.00000000e+00    
           5.26882126e-04     3.27845046e-04     0.00000000e+00    
           5.22572314e-04     3.28322407e-04     0.00000000e+00    
           5.18250570e-04     3.27698828e-04     0.00000000e+00    
           5.14302170e-04     3.26027832e-04     0.00000000e+00    
           5.10652608e-04     3.23467946e-04     0.00000000e+00    
           5.07717661e-04     3.20297142e-04     0.00000000e+00    
           5.05660137e-04     3.16753401e-04     0.00000000e+00    
           5.04893076e-04     3.13167227e-04     0.00000000e+00    
           5.05423755e-04     3.10110918e-04     0.00000000e+00    
           5.07446588e-04     3.08233342e-04     0.00000000e+00    
           5.13977895e-04     3.07060691e-04     0.00000000e+00    
           5.17900451e-04     3.06919159e-04     0.00000000e+00    
           5.22308634e-04     3.07316543e-04     0.00000000e+00    
           5.26786491e-04     3.08123737e-04     0.00000000e+00    
           5.30649500e-04     3.09908297e-04     0.00000000e+00    
           5.33003884e-04     3.12202843e-04     0.00000000e+00    
           5.34229854e-04     3.15369020e-04     0.00000000e+00    
           5.35132014e-04     3.19311919e-04     0.00000000e+00    
           5.34813211e-04     3.22998618e-04     0.00000000e+00    
           5.33248996e-04     3.25567555e-04     0.00000000e+00    
           3.73996329e-04     1.30408895e-04     0.00000000e+00    
           3.73658928e-04     1.31365639e-04     0.00000000e+00    
           3.72533046e-04     1.32679954e-04     0.00000000e+00    
           3.69895599e-04     1.34180693e-04     0.00000000e+00    
           3.67607456e-04     1.35941853e-04     0.00000000e+00    
           3.65663291e-04     1.36621136e-04     0.00000000e+00    
           3.63453873e-04     1.35696217e-04     0.00000000e+00    
           3.60796868e-04     1.34370624e-04     0.00000000e+00    
           3.58191057e-04     1.33080801e-04     0.00000000e+00    
           3.56107135e-04     1.31300272e-04     0.00000000e+00    
           3.54384858e-04     1.29742199e-04     0.00000000e+00    
           3.52762552e-04     1.27881067e-04     0.00000000e+00    
           3.52910924e-04     1.27041028e-04     0.00000000e+00    
           3.53757117e-04     1.26182058e-04     0.00000000e+00    
           3.55564611e-04     1.25169085e-04     0.00000000e+00    
           3.58058867e-04     1.24205675e-04     0.00000000e+00    
           3.60817066e-04     1.23638965e-04     0.00000000e+00    
           3.63529281e-04     1.23718404e-04     0.00000000e+00    
           3.66153632e-04     1.24252692e-04     0.00000000e+00    
           3.68699926e-04     1.25358667e-04     0.00000000e+00    
           3.70801310e-04     1.26671046e-04     0.00000000e+00    
           3.72446288e-04     1.28135027e-04     0.00000000e+00    
           5.69553195e-05     6.70357476e-05     0.00000000e+00    
           5.93969708e-05     6.52802119e-05     0.00000000e+00    
           6.21373692e-05     6.37169796e-05     0.00000000e+00    
           6.48223504e-05     6.22797088e-05     0.00000000e+00    
           6.70704758e-05     6.15822646e-05     0.00000000e+00    
           6.89365479e-05     6.20059800e-05     0.00000000e+00    
           7.11356188e-05     6.37334160e-05     0.00000000e+00    
           7.33809211e-05     6.58600620e-05     0.00000000e+00    
           7.49143728e-05     6.72239694e-05     0.00000000e+00    
           7.56913796e-05     6.97942087e-05     0.00000000e+00    
           7.47164086e-05     7.14000635e-05     0.00000000e+00    
           7.27142033e-05     7.33465786e-05     0.00000000e+00    
           7.06063583e-05     7.52719352e-05     0.00000000e+00    
           6.87563079e-05     7.65783698e-05     0.00000000e+00    
           6.72511960e-05     7.71837076e-05     0.00000000e+00    
           6.54493706e-05     7.70029073e-05     0.00000000e+00    
           6.33298405e-05     7.64441793e-05     0.00000000e+00    
           6.10697825e-05     7.56568843e-05     0.00000000e+00    
           8.07018310e-04     7.32289627e-05     0.00000000e+00    
           8.05345888e-04     7.15021670e-05     0.00000000e+00    
           8.04603042e-04     7.03536207e-05     0.00000000e+00    
           8.04643380e-04     6.92020694e-05     0.00000000e+00    
           6.69826986e-05     2.02729876e-04     0.00000000e+00    
           6.39633290e-05     2.02668438e-04     0.00000000e+00    
           6.04909292e-05     2.02201423e-04     0.00000000e+00    
           5.62378591e-05     2.01489282e-04     0.00000000e+00    
           5.20374851e-05     2.00291717e-04     0.00000000e+00    
           4.86463250e-05     1.98517446e-04     0.00000000e+00    
           4.64338627e-05     1.96338835e-04     0.00000000e+00    
           4.52880195e-05     1.93636952e-04     0.00000000e+00    
           4.47263628e-05     1.90386651e-04     0.00000000e+00    
           4.53166940e-05     1.87489495e-04     0.00000000e+00    
           4.72036627e-05     1.85329627e-04     0.00000000e+00    
           5.33913299e-05     1.82082193e-04     0.00000000e+00    
           5.70751545e-05     1.81029085e-04     0.00000000e+00    
           6.08344890e-05     1.80631920e-04     0.00000000e+00    
           6.41480074e-05     1.80984905e-04     0.00000000e+00    
           6.67901477e-05     1.82052681e-04     0.00000000e+00    
           6.86868443e-05     1.84142817e-04     0.00000000e+00    
           7.00915771e-05     1.86993857e-04     0.00000000e+00    
           7.10846798e-05     1.90230319e-04     0.00000000e+00    
           7.14544585e-05     1.93534273e-04     0.00000000e+00    