<?xml version="1.0"?>
<VTKFile type="UnstructuredGrid" version="0.1">
  <UnstructuredGrid>
    <Piece NumberOfPoints="1034" NumberOfCells="1614">
      <Points>
        <DataArray type="Float32" NumberOfComponents="3">
           5.21582007e-01     5.11657000e-01     0.00000000e+00    
           5.07319987e-01     5.11657000e-01     0.00000000e+00    
           4.65243995e-01     5.17907977e-01     0.00000000e+00    
           4.65243995e-01     5.04921973e-01     0.00000000e+00    
           4.75246996e-01     5.11415005e-01     0.00000000e+00    
           5.33852994e-01     5.04921973e-01     0.00000000e+00    
           5.33852994e-01     5.17907977e-01     0.00000000e+00    
           4.83779997e-01     5.34618974e-01     0.00000000e+00    
           4.68984991e-01     5.34618974e-01     0.00000000e+00    
           4.76381987e-01     5.23841977e-01     0.00000000e+00    
           4.68984991e-01     4.66010004e-01     0.00000000e+00    
           4.83779997e-01     4.66010004e-01     0.00000000e+00    
           4.99920011e-01     5.34618974e-01     0.00000000e+00    
           4.89203990e-01     5.34618974e-01     0.00000000e+00    
           4.94562000e-01     5.22280991e-01     0.00000000e+00    
           4.89203990e-01     4.66010004e-01     0.00000000e+00    
           4.99920011e-01     4.66010004e-01     0.00000000e+00    
           5.32517016e-01     4.74112004e-01     0.00000000e+00    
           5.17961025e-01     4.74112004e-01     0.00000000e+00    
           5.33852994e-01     5.19801974e-01     0.00000000e+00    
           5.33852994e-01     5.29603004e-01     0.00000000e+00    
           5.19536972e-01     5.24702013e-01     0.00000000e+00    
           4.65243995e-01     5.29603004e-01     0.00000000e+00    
           4.65243995e-01     5.19801974e-01     0.00000000e+00    
           4.92487997e-01     5.17117977e-01     0.00000000e+00    
           4.76904988e-01     5.17117977e-01     0.00000000e+00    
           5.17996013e-01     5.27033985e-01     0.00000000e+00    
           5.04473984e-01     5.27033985e-01     0.00000000e+00    
           5.08446991e-01     4.83435005e-01     0.00000000e+00    
           4.94414002e-01     4.83435005e-01     0.00000000e+00    
           4.65243995e-01     4.83101994e-01     0.00000000e+00    
           4.65243995e-01     4.74415004e-01     0.00000000e+00    
           4.78336990e-01     4.78758007e-01     0.00000000e+00    
           5.33852994e-01     4.74415004e-01     0.00000000e+00    
           5.33852994e-01     4.83101994e-01     0.00000000e+00    
           4.80668008e-01     4.95810986e-01     0.00000000e+00    
           4.66084987e-01     4.95810986e-01     0.00000000e+00    
           4.93930012e-01     4.79214013e-01     0.00000000e+00    
           4.78967011e-01     4.79214013e-01     0.00000000e+00    
           5.09284973e-01     4.97658014e-01     0.00000000e+00    
           4.95503992e-01     4.97658014e-01     0.00000000e+00    
           5.33011973e-01     5.01751006e-01     0.00000000e+00    
           5.17829001e-01     5.01751006e-01     0.00000000e+00    
           4.95451003e-01     5.00564992e-01     0.00000000e+00    
           4.80922014e-01     5.00564992e-01     0.00000000e+00    
           5.25367022e-01     4.88312006e-01     0.00000000e+00    
           5.09521008e-01     4.88312006e-01     0.00000000e+00    
           4.65243995e-01     5.34618974e-01     0.00000000e+00    
           4.65243995e-01     4.66010004e-01     0.00000000e+00    
           5.33852994e-01     4.66010004e-01     0.00000000e+00    
           5.33852994e-01     5.34618974e-01     0.00000000e+00    
           5.21338999e-01     5.13502657e-01     0.00000000e+00    
           5.20626605e-01     5.15222490e-01     0.00000000e+00    
           5.19493401e-01     5.16699374e-01     0.00000000e+00    
           5.18016517e-01     5.17832637e-01     0.00000000e+00    
           5.16296625e-01     5.18545032e-01     0.00000000e+00    
           5.14451027e-01     5.18787980e-01     0.00000000e+00    
           5.12605369e-01     5.18545032e-01     0.00000000e+00    
           5.10885477e-01     5.17832637e-01     0.00000000e+00    
           5.09408593e-01     5.16699374e-01     0.00000000e+00    
           5.08275390e-01     5.15222490e-01     0.00000000e+00    
           5.07562995e-01     5.13502657e-01     0.00000000e+00    
           5.07562995e-01     5.09811342e-01     0.00000000e+00    
           5.08275390e-01     5.08091509e-01     0.00000000e+00    
           5.09408593e-01     5.06614625e-01     0.00000000e+00    
           5.10885477e-01     5.05481362e-01     0.00000000e+00    
           5.12605369e-01     5.04768968e-01     0.00000000e+00    
           5.14451027e-01     5.04526019e-01     0.00000000e+00    
           5.16296625e-01     5.04768968e-01     0.00000000e+00    
           5.18016517e-01     5.05481362e-01     0.00000000e+00    
           5.19493401e-01     5.06614625e-01     0.00000000e+00    
           5.20626605e-01     5.08091509e-01     0.00000000e+00    
           5.21338999e-01     5.09811342e-01     0.00000000e+00    
           4.66931671e-01     5.04409373e-01     0.00000000e+00    
           4.68693614e-01     5.04328012e-01     0.00000000e+00    
           4.70421344e-01     5.04682958e-01     0.00000000e+00    
           4.72008497e-01     5.05452335e-01     0.00000000e+00    
           4.73357379e-01     5.06588817e-01     0.00000000e+00    
           4.74384934e-01     5.08022368e-01     0.00000000e+00    
           4.75027919e-01     5.09664834e-01     0.00000000e+00    
           4.75028187e-01     5.13165236e-01     0.00000000e+00    
           4.74385172e-01     5.14807761e-01     0.00000000e+00    
           4.73357558e-01     5.16241372e-01     0.00000000e+00    
           4.72008646e-01     5.17377913e-01     0.00000000e+00    
           4.70421433e-01     5.18147290e-01     0.00000000e+00    
           4.68693614e-01     5.18502235e-01     0.00000000e+00    
           4.66931641e-01     5.18420875e-01     0.00000000e+00    
           5.32303810e-01     5.16964078e-01     0.00000000e+00    
           5.31043947e-01     5.15658796e-01     0.00000000e+00    
           5.30155540e-01     5.14077127e-01     0.00000000e+00    
           5.29696345e-01     5.12322068e-01     0.00000000e+00    
           5.29696345e-01     5.10507941e-01     0.00000000e+00    
           5.30155540e-01     5.08752882e-01     0.00000000e+00    
           5.31043947e-01     5.07171214e-01     0.00000000e+00    
           5.32303810e-01     5.05865932e-01     0.00000000e+00    
           4.68517244e-01     5.32760799e-01     0.00000000e+00    
           4.68509018e-01     5.30844629e-01     0.00000000e+00    
           4.68960851e-01     5.28982460e-01     0.00000000e+00    
           4.69846308e-01     5.27283132e-01     0.00000000e+00    
           4.71113682e-01     5.25845945e-01     0.00000000e+00    
           4.72688884e-01     5.24754822e-01     0.00000000e+00    
           4.74479854e-01     5.24073541e-01     0.00000000e+00    
           4.78284091e-01     5.24073601e-01     0.00000000e+00    
           4.80075032e-01     5.24754822e-01     0.00000000e+00    
           4.81650203e-01     5.25845885e-01     0.00000000e+00    
           4.82917547e-01     5.27283013e-01     0.00000000e+00    
           4.83803004e-01     5.28982282e-01     0.00000000e+00    
           4.84254897e-01     5.30844331e-01     0.00000000e+00    
           4.84246761e-01     5.32760441e-01     0.00000000e+00    
           4.82887864e-01     4.67691004e-01     0.00000000e+00    
           4.81620818e-01     4.69110936e-01     0.00000000e+00    
           4.80051905e-01     4.70188022e-01     0.00000000e+00    
           4.78271484e-01     4.70860153e-01     0.00000000e+00    
           4.76382166e-01     4.71088618e-01     0.00000000e+00    
           4.74492878e-01     4.70860243e-01     0.00000000e+00    
           4.72712427e-01     4.70188200e-01     0.00000000e+00    
           4.71143454e-01     4.69111174e-01     0.00000000e+00    
           4.69876349e-01     4.67691302e-01     0.00000000e+00    
           4.88103986e-01     5.33086061e-01     0.00000000e+00    
           4.87431526e-01     5.31323195e-01     0.00000000e+00    
           4.87231195e-01     5.29447019e-01     0.00000000e+00    
           4.87516224e-01     5.27581930e-01     0.00000000e+00    
           4.88267750e-01     5.25851250e-01     0.00000000e+00    
           4.89436030e-01     5.24369657e-01     0.00000000e+00    
           4.90943670e-01     5.23235261e-01     0.00000000e+00    
           4.92690891e-01     5.22523046e-01     0.00000000e+00    
           4.96432930e-01     5.22523701e-01     0.00000000e+00    
           4.98180002e-01     5.23235798e-01     0.00000000e+00    
           4.99687493e-01     5.24370134e-01     0.00000000e+00    
           5.00855684e-01     5.25851607e-01     0.00000000e+00    
           5.01607120e-01     5.27582109e-01     0.00000000e+00    
           5.01892149e-01     5.29447079e-01     0.00000000e+00    
           5.01691818e-01     5.31323016e-01     0.00000000e+00    
           5.01019418e-01     5.33085763e-01     0.00000000e+00    
           4.98371124e-01     4.67269689e-01     0.00000000e+00    
           4.96539861e-01     4.68064904e-01     0.00000000e+00    
           4.94562000e-01     4.68336672e-01     0.00000000e+00    
           4.92584139e-01     4.68064904e-01     0.00000000e+00    
           4.90752876e-01     4.67269689e-01     0.00000000e+00    
           5.32269001e-01     4.75995690e-01     0.00000000e+00    
           5.31541944e-01     4.77750987e-01     0.00000000e+00    
           5.30385315e-01     4.79258329e-01     0.00000000e+00    
           5.28877974e-01     4.80414927e-01     0.00000000e+00    
[...]
      <PointData>
        <DataArray type="Float32" Name="Displacement" NumberOfComponents="3">
           1.23922830e-03     5.60166023e-04     0.00000000e+00    
           1.21782476e-03     5.48790849e-04     0.00000000e+00    
          -4.86218914e-06     5.67311654e-04     0.00000000e+00    
           1.61993046e-06     5.51000587e-04     0.00000000e+00    
           1.42749968e-05     5.64685964e-04     0.00000000e+00    
           1.65161991e-03     5.51000587e-04     0.00000000e+00    
           1.64513779e-03     5.67311654e-04     0.00000000e+00    
           2.41358663e-04     8.20878602e-04     0.00000000e+00    
           2.19148482e-04     8.21017020e-04     0.00000000e+00    
           2.31064143e-04     8.06564058e-04     0.00000000e+00    
           2.19148482e-04    -3.98300790e-06     0.00000000e+00    
           2.41358663e-04    -4.12140389e-06     0.00000000e+00    
           5.92452590e-04     7.74285232e-04     0.00000000e+00    
           5.74479054e-04     7.84538395e-04     0.00000000e+00    
           5.71867044e-04     7.64218450e-04     0.00000000e+00    
           5.74479054e-04    -4.04616221e-05     0.00000000e+00    
           5.92452590e-04    -5.07147488e-05     0.00000000e+00    
           1.48097670e-03     1.22702404e-04     0.00000000e+00    
           1.45971403e-03     1.18947122e-04     0.00000000e+00    
           1.51108799e-03     7.09799293e-04     0.00000000e+00    
           1.51342165e-03     7.22399738e-04     0.00000000e+00    
           1.49102020e-03     7.19228003e-04     0.00000000e+00    
          -1.36578339e-04     7.22399738e-04     0.00000000e+00    
          -1.38912059e-04     7.09799293e-04     0.00000000e+00    
           3.87784705e-04     6.55120180e-04     0.00000000e+00    
           3.64928681e-04     6.59734709e-04     0.00000000e+00    
           1.16378465e-03     7.18955300e-04     0.00000000e+00    
           1.14400755e-03     7.06843508e-04     0.00000000e+00    
           8.41136381e-04     2.71802099e-04     0.00000000e+00    
           8.20824818e-04     2.83272355e-04     0.00000000e+00    
           1.28239044e-04     1.57825882e-04     0.00000000e+00    
           1.36947070e-04     1.48195453e-04     0.00000000e+00    
           1.52009394e-04     1.64926198e-04     0.00000000e+00    
           1.78694702e-03     1.48195453e-04     0.00000000e+00    
           1.77823904e-03     1.57825882e-04     0.00000000e+00    
           1.49752319e-04     4.08810884e-04     0.00000000e+00    
           1.28700354e-04     3.83714621e-04     0.00000000e+00    
           4.24358412e-04     1.82677628e-04     0.00000000e+00    
           4.02764097e-04     1.78743518e-04     0.00000000e+00    
           8.79230793e-04     3.53276322e-04     0.00000000e+00    
           8.59035121e-04     3.86456115e-04     0.00000000e+00    
           1.44346710e-03     4.50688589e-04     0.00000000e+00    
           1.42069405e-03     4.48076607e-04     0.00000000e+00    
           4.63369506e-04     4.61343938e-04     0.00000000e+00    
           4.42509918e-04     4.59690986e-04     0.00000000e+00    
           1.29989337e-03     3.03441426e-04     0.00000000e+00    
           1.27644045e-03     3.02154367e-04     0.00000000e+00    
           0.00000000e+00     8.24999996e-04     0.00000000e+00    
           0.00000000e+00     0.00000000e+00     0.00000000e+00    
           1.64999999e-03     0.00000000e+00     0.00000000e+00    
           1.64999999e-03     8.24999996e-04     0.00000000e+00    
           1.23733934e-03     5.62824658e-04     0.00000000e+00    
           1.23503618e-03     5.64373680e-04     0.00000000e+00    
           1.23225723e-03     5.65551512e-04     0.00000000e+00    
           1.22917176e-03     5.66428178e-04     0.00000000e+00    
           1.22557720e-03     5.66358794e-04     0.00000000e+00    
           1.22198137e-03     5.65045280e-04     0.00000000e+00    
           1.21959206e-03     5.63027279e-04     0.00000000e+00    
           1.21771730e-03     5.60663524e-04     0.00000000e+00    
           1.21605839e-03     5.57594409e-04     0.00000000e+00    
           1.21578237e-03     5.54166734e-04     0.00000000e+00    
           1.21638703e-03     5.51226025e-04     0.00000000e+00    
           1.21959823e-03     5.46668831e-04     0.00000000e+00    
           1.22211140e-03     5.45229879e-04     0.00000000e+00    
           1.22476707e-03     5.44323586e-04     0.00000000e+00    
           1.22785720e-03     5.43680973e-04     0.00000000e+00    
           1.23154279e-03     5.43942733e-04     0.00000000e+00    
           1.23567937e-03     5.45332208e-04     0.00000000e+00    
           1.23876671e-03     5.48070588e-04     0.00000000e+00    
           1.24024984e-03     5.51001984e-04     0.00000000e+00    
           1.24058966e-03     5.53337391e-04     0.00000000e+00    
           1.24040188e-03     5.55464358e-04     0.00000000e+00    
           1.23991515e-03     5.57708321e-04     0.00000000e+00    
           5.11117287e-06     5.49920194e-04     0.00000000e+00    
           8.72991495e-06     5.50837081e-04     0.00000000e+00    
           1.10888432e-05     5.52383484e-04     0.00000000e+00    
           1.30347416e-05     5.54245722e-04     0.00000000e+00    
           1.46181337e-05     5.56809304e-04     0.00000000e+00    
           1.53537076e-05     5.59653388e-04     0.00000000e+00    
           1.50597625e-05     5.62425179e-04     0.00000000e+00    
           1.29180498e-05     5.66421775e-04     0.00000000e+00    
           1.13991227e-05     5.67773764e-04     0.00000000e+00    
           9.45921511e-06     5.69159689e-04     0.00000000e+00    
           7.14677071e-06     5.70213422e-04     0.00000000e+00    
           4.26082397e-06     5.70899982e-04     0.00000000e+00    
           5.76306206e-07     5.70978562e-04     0.00000000e+00    
          -2.80703057e-06     5.69171156e-04     0.00000000e+00    
           1.64395932e-03     5.65451162e-04     0.00000000e+00    
           1.64306560e-03     5.63438749e-04     0.00000000e+00    
           1.64248003e-03     5.60548971e-04     0.00000000e+00    
           1.64272496e-03     5.57664374e-04     0.00000000e+00    
           1.64408376e-03     5.55037812e-04     0.00000000e+00    
           1.64579588e-03     5.53232909e-04     0.00000000e+00    
           1.64765690e-03     5.52286219e-04     0.00000000e+00    
           1.64953677e-03     5.51692734e-04     0.00000000e+00    
           2.18634203e-04     8.18344823e-04     0.00000000e+00    
           2.18835426e-04     8.16091837e-04     0.00000000e+00    
           2.19434092e-04     8.14113591e-04     0.00000000e+00    
           2.20393791e-04     8.12079990e-04     0.00000000e+00    
           2.21934562e-04     8.10101628e-04     0.00000000e+00    
           2.24320611e-04     8.08164885e-04     0.00000000e+00    
           2.27625336e-04     8.06723197e-04     0.00000000e+00    
           2.34261519e-04     8.07372155e-04     0.00000000e+00    
           2.36305597e-04     8.08332232e-04     0.00000000e+00    
           2.38193010e-04     8.09483347e-04     0.00000000e+00    
           2.39927685e-04     8.10979865e-04     0.00000000e+00    
           2.41282673e-04     8.13477731e-04     0.00000000e+00    
           2.41794449e-04     8.15888110e-04     0.00000000e+00    
           2.41906208e-04     8.18235218e-04     0.00000000e+00    
           2.40164896e-04    -1.60752188e-06     0.00000000e+00    
           2.38410939e-04     7.35528943e-07     0.00000000e+00    
           2.35908388e-04     2.47796993e-06     0.00000000e+00    
           2.32589795e-04     3.87949831e-06     0.00000000e+00    
           2.29334895e-04     3.75845843e-06     0.00000000e+00    
           2.26725184e-04     3.16462501e-06     0.00000000e+00    
           2.24507123e-04     2.37139238e-06     0.00000000e+00    
           2.22333198e-04     9.05187619e-07     0.00000000e+00    
           2.20192946e-04    -1.40789348e-06     0.00000000e+00    
           5.71812619e-04     7.83158001e-04     0.00000000e+00    
           5.69544442e-04     7.81435694e-04     0.00000000e+00    
           5.67698909e-04     7.79365539e-04     0.00000000e+00    
           5.66345290e-04     7.76578672e-04     0.00000000e+00    
           5.66211937e-04     7.73749140e-04     0.00000000e+00    
           5.66473464e-04     7.71405059e-04     0.00000000e+00    
           5.67246228e-04     7.69053411e-04     0.00000000e+00    
           5.68676507e-04     7.66582612e-04     0.00000000e+00    
           5.75994549e-04     7.62972166e-04     0.00000000e+00    
           5.79718559e-04     7.63133168e-04     0.00000000e+00    
           5.82853449e-04     7.63762568e-04     0.00000000e+00    
           5.85364352e-04     7.64493656e-04     0.00000000e+00    
           5.87468268e-04     7.65318575e-04     0.00000000e+00    
           5.89530275e-04     7.66572601e-04     0.00000000e+00    
           5.91208576e-04     7.68498285e-04     0.00000000e+00    
           5.92228316e-04     7.71090738e-04     0.00000000e+00    
           5.91632095e-04    -4.71562998e-05     0.00000000e+00    
           5.89318457e-04    -4.36500122e-05     0.00000000e+00    
           5.85792935e-04    -4.09014683e-05     0.00000000e+00    
           5.81666711e-04    -3.97420736e-05     0.00000000e+00    
           5.78000792e-04    -3.96982468e-05     0.00000000e+00    
           1.47993432e-03     1.24346087e-04     0.00000000e+00    
           1.47872791e-03     1.25547856e-04     0.00000000e+00    
           1.47731882e-03     1.26739775e-04     0.00000000e+00    
           1.47478178e-03     1.28771848e-04     0.00000000e+00    
           1.47106091e-03     1.29922744e-04     0.00000000e+00    
           1.46763062e-03     1.29668595e-04     0.00000000e+00    
           1.46519428e-03     1.28932108e-04     0.00000000e+00    
           1.46338088e-03     1.27842926e-04     0.00000000e+00    
           1.46196794e-03     1.26490588e-04     0.00000000e+00    
           1.46049797e-03     1.24494210e-04     0.00000000e+00    
           1.45966082e-03     1.21886849e-04     0.00000000e+00    
           1.46045373e-03     1.16354815e-04     0.00000000e+00    
           1.46194082e-03     1.13694994e-04     0.00000000e+00    
           1.46409951e-03     1.11473440e-04     0.00000000e+00    
           1.46701816e-03     1.09945417e-04     0.00000000e+00    
           1.47031853e-03     1.09481334e-04     0.00000000e+00    
           1.47319981e-03     1.09823508e-04     0.00000000e+00    
           1.47582695e-03     1.10714398e-04     0.00000000e+00    
           1.47840905e-03     1.12183072e-04     0.00000000e+00    
           1.48049626e-03     1.14906594e-04     0.00000000e+00    
           1.48149254e-03     1.17900199e-04     0.00000000e+00    
           1.48162269e-03     1.20548808e-04     0.00000000e+00    
           1.51189230e-03     7.24870188e-04     0.00000000e+00    
           1.50954840e-03     7.27151753e-04     0.00000000e+00    
           1.50631485e-03     7.28840532e-04     0.00000000e+00    
           1.50295952e-03     7.29267311e-04     0.00000000e+00    
           1.49974541e-03     7.29004620e-04     0.00000000e+00    
           1.49656937e-03     7.27688428e-04     0.00000000e+00    
           1.49418367e-03     7.25267048e-04     0.00000000e+00    
           1.49261625e-03     7.22896715e-04     0.00000000e+00    
           1.49167690e-03     7.20993383e-04     0.00000000e+00    
           1.49072416e-03     7.17131479e-04     0.00000000e+00    
           1.49108632e-03     7.15009344e-04     0.00000000e+00    
           1.49200659e-03     7.12775975e-04     0.00000000e+00    
           1.49381987e-03     7.10391148e-04     0.00000000e+00    
           1.49627123e-03     7.08314357e-04     0.00000000e+00    
           1.50021748e-03     7.06891471e-04     0.00000000e+00    
           1.50389608e-03     7.07012718e-04     0.00000000e+00    
           1.50672032e-03     7.07618019e-04     0.00000000e+00    
           1.50897540e-03     7.08520703e-04     0.00000000e+00    
          -1.37245515e-04     7.11665838e-04     0.00000000e+00    
          -1.36063201e-04     7.13925401e-04     0.00000000e+00    
          -1.35589289e-04     7.16135430e-04     0.00000000e+00    
          -1.35599897e-04     7.18389230e-04     0.00000000e+00    
          -1.35901209e-04     7.20264274e-04     0.00000000e+00    
           3.88013577e-04     6.57781668e-04     0.00000000e+00    
           3.87614826e-04     6.60486112e-04     0.00000000e+00    
           3.86421045e-04     6.62472914e-04     0.00000000e+00    
           3.85264750e-04     6.64177758e-04     0.00000000e+00    
           3.83455394e-04     6.65930507e-04     0.00000000e+00    
           3.80359968e-04     6.67866319e-04     0.00000000e+00    
           3.76753509e-04     6.68132387e-04     0.00000000e+00    
           3.74025491e-04     6.67825574e-04     0.00000000e+00    
           3.71614209e-04     6.67327200e-04     0.00000000e+00    
           3.69388057e-04     6.66467240e-04     0.00000000e+00    
           3.67042288e-04     6.64659194e-04     0.00000000e+00    
           3.65672662e-04     6.61992759e-04     0.00000000e+00    
           3.64711013e-04     6.57378812e-04     0.00000000e+00    
           3.64886830e-04     6.55246433e-04     0.00000000e+00    
           3.65540880e-04     6.52761548e-04     0.00000000e+00    
           3.67102912e-04     6.50064263e-04     0.00000000e+00    
           3.69707763e-04     6.47873734e-04     0.00000000e+00    
           3.73131683e-04     6.46609697e-04     0.00000000e+00    
           3.75723117e-04     6.46227447e-04     0.00000000e+00    
           3.78205179e-04     6.46144268e-04     0.00000000e+00    
           3.81003716e-04     6.46740664e-04     0.00000000e+00    
           3.83545819e-04     6.48309942e-04     0.00000000e+00    
           3.85604508e-04     6.50417933e-04     0.00000000e+00    
           3.87027801e-04     6.52718532e-04     0.00000000e+00    
           1.16186484e-03     7.20633892e-04     0.00000000e+00    
           1.15926075e-03     7.22076977e-04     0.00000000e+00    
           1.15612056e-03     7.23002944e-04     0.00000000e+00    
           1.15267909e-03     7.23242934e-04     0.00000000e+00    
           1.14879990e-03     7.22499739e-04     0.00000000e+00    
           1.14513806e-03     7.20494718e-04     0.00000000e+00    
           1.14256260e-03     7.17489514e-04     0.00000000e+00    
           1.14145619e-03     7.14231865e-04     0.00000000e+00    
           1.14132510e-03     7.11165310e-04     0.00000000e+00    
           1.14240730e-03     7.08678970e-04     0.00000000e+00    
           1.14593038e-03     7.05447921e-04     0.00000000e+00    
           1.14822946e-03     7.04044651e-04     0.00000000e+00    
           1.15119445e-03     7.02830090e-04     0.00000000e+00    
           1.15511275e-03     7.01765472e-04     0.00000000e+00    
           1.15934922e-03     7.02577818e-04     0.00000000e+00    
           1.16225332e-03     7.04443082e-04     0.00000000e+00    
           1.16432365e-03     7.06783147e-04     0.00000000e+00    
           1.16617652e-03     7.10020249e-04     0.00000000e+00    
           1.16631645e-03     7.13922316e-04     0.00000000e+00    
           1.16534147e-03     7.16850278e-04     0.00000000e+00    
           8.42524343e-04     2.73728190e-04     0.00000000e+00    
           8.43144662e-04     2.76074483e-04     0.00000000e+00    
           8.43311253e-04     2.79266998e-04     0.00000000e+00    
           8.41669273e-04     2.82724708e-04     0.00000000e+00    
           8.39711400e-04     2.85220187e-04     0.00000000e+00    
           8.37720523e-04     2.87126837e-04     0.00000000e+00    
           8.34959792e-04     2.88493437e-04     0.00000000e+00    
           8.30989331e-04     2.88911018e-04     0.00000000e+00    
           8.27294949e-04     2.87760951e-04     0.00000000e+00    
           8.24669725e-04     2.86333758e-04     0.00000000e+00    
           8.22527800e-04     2.84882495e-04     0.00000000e+00    
           8.19423411e-04     2.81641027e-04     0.00000000e+00    
           8.18457920e-04     2.79511791e-04     0.00000000e+00    
           8.18036322e-04     2.76824547e-04     0.00000000e+00    
           8.18665489e-04     2.73726910e-04     0.00000000e+00    
           8.20645422e-04     2.70503457e-04     0.00000000e+00    
           8.24092655e-04     2.67850875e-04     0.00000000e+00    
           8.27868818e-04     2.66722258e-04     0.00000000e+00    
           8.31608020e-04     2.66807881e-04     0.00000000e+00    
           8.34829872e-04     2.67778058e-04     0.00000000e+00    
           8.37330008e-04     2.68832257e-04     0.00000000e+00    
           8.39478453e-04     2.70229240e-04     0.00000000e+00    
           1.39676500e-04     1.47513492e-04     0.00000000e+00    
           1.42951176e-04     1.46792401e-04     0.00000000e+00    
           1.46668026e-04     1.47205574e-04     0.00000000e+00    
           1.49878353e-04     1.48911553e-04     0.00000000e+00    
           1.51978238e-04     1.50995766e-04     0.00000000e+00    
           1.53382716e-04     1.53369037e-04     0.00000000e+00    
           1.54663489e-04     1.56409864e-04     0.00000000e+00    
           1.54698442e-04     1.60199750e-04     0.00000000e+00    
           1.53593035e-04     1.63006058e-04     0.00000000e+00    
           1.50164255e-04     1.66508893e-04     0.00000000e+00    
           1.48052903e-04     1.67971550e-04     0.00000000e+00    
           1.45328304e-04     1.69609673e-04     0.00000000e+00    
           1.41957004e-04     1.70681611e-04     0.00000000e+00    
           1.38375006e-04     1.70267987e-04     0.00000000e+00    
           1.35543814e-04     1.69027859e-04     0.00000000e+00    
           1.32872461e-04     1.67282284e-04     0.00000000e+00    
           1.30527158e-04     1.64608980e-04     0.00000000e+00    
           1.28779153e-04     1.61361168e-04     0.00000000e+00    
           1.77881424e-03     1.54484223e-04     0.00000000e+00    
           1.78023044e-03     1.51713233e-04     0.00000000e+00    
           1.78234093e-03     1.49878382e-04     0.00000000e+00    
           1.78463315e-03     1.48879204e-04     0.00000000e+00    
           1.46064922e-04     4.10064473e-04     0.00000000e+00    
           1.42293473e-04     4.10375796e-04     0.00000000e+00    
           1.38651754e-04     4.10269568e-04     0.00000000e+00    
           1.34573682e-04     4.09792730e-04     0.00000000e+00    
           1.30027562e-04     4.08481021e-04     0.00000000e+00    
           1.26236395e-04     4.05734405e-04     0.00000000e+00    
           1.23776263e-04     4.01960307e-04     0.00000000e+00    
           1.22686761e-04     3.98091594e-04     0.00000000e+00    
           1.22442361e-04     3.93873779e-04     0.00000000e+00    
           1.23432779e-04     3.89827153e-04     0.00000000e+00    
           1.25739200e-04     3.86310450e-04     0.00000000e+00    
           1.32051020e-04     3.81908554e-04     0.00000000e+00    
           1.35773691e-04     3.80442565e-04     0.00000000e+00    
           1.40206655e-04     3.79656733e-04     0.00000000e+00    
           1.44706821e-04     3.80371901e-04     0.00000000e+00    
           1.48618841e-04     3.82255705e-04     0.00000000e+00    
           1.51736589e-04     3.85084422e-04     0.00000000e+00    
           1.54212597e-04     3.88459244e-04     0.00000000e+00    
           1.55836577e-04     3.92791961e-04     0.00000000e+00    
           1.56303999e-04     3.97484197e-04     0.00000000e+00    