<?xml version="1.0"?>
<VTKFile type="UnstructuredGrid" version="0.1">
  <UnstructuredGrid>
    <Piece NumberOfPoints="1034" NumberOfCells="1614">
      <Points>
        <DataArray type="Float32" NumberOfComponents="3">
           5.21582007e-01     5.11657000e-01     0.00000000e+00    
           5.07319987e-01     5.11657000e-01     0.00000000e+00    
           4.65243995e-01     5.17907977e-01     0.00000000e+00    
           4.65243995e-01     5.04921973e-01     0.00000000e+00    
           4.75246996e-01     5.11415005e-01     0.00000000e+00    
           5.33852994e-01     5.04921973e-01     0.00000000e+00    
           5.33852994e-01     5.17907977e-01     0.00000000e+00    
           4.83779997e-01     5.34618974e-01     0.00000000e+00    
           4.68984991e-01     5.34618974e-01     0.00000000e+00    
           4.76381987e-01     5.23841977e-01     0.00000000e+00    
           4.68984991e-01     4.66010004e-01     0.00000000e+00    
           4.83779997e-01     4.66010004e-01     0.00000000e+00    
           4.99920011e-01     5.34618974e-01     0.00000000e+00    
           4.89203990e-01     5.34618974e-01     0.00000000e+00    
           4.94562000e-01     5.22280991e-01     0.00000000e+00    
           4.89203990e-01     4.66010004e-01     0.00000000e+00    
           4.99920011e-01     4.66010004e-01     0.00000000e+00    
           5.32517016e-01     4.74112004e-01     0.00000000e+00    
           5.17961025e-01     4.74112004e-01     0.00000000e+00    
           5.33852994e-01     5.19801974e-01     0.00000000e+00    
           5.33852994e-01     5.29603004e-01     0.00000000e+00    
           5.19536972e-01     5.24702013e-01     0.00000000e+00    
           4.65243995e-01     5.29603004e-01     0.00000000e+00    
           4.65243995e-01     5.19801974e-01     0.00000000e+00    
           4.92487997e-01     5.17117977e-01     0.00000000e+00    
           4.76904988e-01     5.17117977e-01     0.00000000e+00    
           5.17996013e-01     5.27033985e-01     0.00000000e+00    
           5.04473984e-01     5.27033985e-01     0.00000000e+00    
           5.08446991e-01     4.83435005e-01     0.00000000e+00    
           4.94414002e-01     4.83435005e-01     0.00000000e+00    
           4.65243995e-01     4.83101994e-01     0.00000000e+00    
           4.65243995e-01     4.74415004e-01     0.00000000e+00    
           4.78336990e-01     4.78758007e-01     0.00000000e+00    
           5.33852994e-01     4.74415004e-01     0.00000000e+00    
           5.33852994e-01     4.83101994e-01     0.00000000e+00    
           4.80668008e-01     4.95810986e-01     0.00000000e+00    
           4.66084987e-01     4.95810986e-01     0.00000000e+00    
           4.93930012e-01     4.79214013e-01     0.00000000e+00    
           4.78967011e-01     4.79214013e-01     0.00000000e+00    
           5.09284973e-01     4.97658014e-01     0.00000000e+00    
           4.95503992e-01     4.97658014e-01     0.00000000e+00    
           5.33011973e-01     5.01751006e-01     0.00000000e+00    
           5.17829001e-01     5.01751006e-01     0.00000000e+00    
           4.95451003e-01     5.00564992e-01     0.00000000e+00    
           4.80922014e-01     5.00564992e-01     0.00000000e+00    
           5.25367022e-01     4.88312006e-01     0.00000000e+00    
           5.09521008e-01     4.88312006e-01     0.00000000e+00    
           4.65243995e-01     5.34618974e-01     0.00000000e+00    
           4.65243995e-01     4.66010004e-01     0.00000000e+00    
           5.33852994e-01     4.66010004e-01     0.00000000e+00    
           5.33852994e-01     5.34618974e-01     0.00000000e+00    
           5.21338999e-01     5.13502657e-01     0.00000000e+00    
           5.20626605e-01     5.15222490e-01     0.00000000e+00    
           5.19493401e-01     5.16699374e-01     0.00000000e+00    
           5.18016517e-01     5.17832637e-01     0.00000000e+00    
           5.16296625e-01     5.18545032e-01     0.00000000e+00    
           5.14451027e-01     5.18787980e-01     0.00000000e+00    
           5.12605369e-01     5.18545032e-01     0.00000000e+00    
           5.10885477e-01     5.17832637e-01     0.00000000e+00    
           5.09408593e-01     5.16699374e-01     0.00000000e+00    
           5.08275390e-01     5.15222490e-01     0.00000000e+00    
           5.07562995e-01     5.13502657e-01     0.00000000e+00    
           5.07562995e-01     5.09811342e-01     0.00000000e+00    
           5.08275390e-01     5.08091509e-01     0.00000000e+00    
           5.09408593e-01     5.06614625e-01     0.00000000e+00    
           5.10885477e-01     5.05481362e-01     0.00000000e+00    
           5.12605369e-01     5.04768968e-01     0.00000000e+00    
           5.14451027e-01     5.04526019e-01     0.00000000e+00    
           5.16296625e-01     5.04768968e-01     0.00000000e+00    
           5.18016517e-01     5.05481362e-01     0.00000000e+00    
           5.19493401e-01     5.06614625e-01     0.00000000e+00    
           5.20626605e-01     5.08091509e-01     0.00000000e+00    
           5.21338999e-01     5.09811342e-01     0.00000000e+00    
           4.66931671e-01     5.04409373e-01     0.00000000e+00    
           4.68693614e-01     5.04328012e-01     0.00000000e+00    
           4.70421344e-01     5.04682958e-01     0.00000000e+00    
           4.72008497e-01     5.05452335e-01     0.00000000e+00    
           4.73357379e-01     5.06588817e-01     0.00000000e+00    
           4.74384934e-01     5.08022368e-01     0.00000000e+00    
           4.75027919e-01     5.09664834e-01     0.00000000e+00    
           4.75028187e-01     5.13165236e-01     0.00000000e+00    
           4.74385172e-01     5.14807761e-01     0.00000000e+00    
           4.73357558e-01     5.16241372e-01     0.00000000e+00    
           4.72008646e-01     5.17377913e-01     0.00000000e+00    
           4.70421433e-01     5.18147290e-01     0.00000000e+00    
           4.68693614e-01     5.18502235e-01     0.00000000e+00    
           4.66931641e-01     5.18420875e-01     0.00000000e+00    
           5.32303810e-01     5.16964078e-01     0.00000000e+00    
           5.31043947e-01     5.15658796e-01     0.00000000e+00    
           5.30155540e-01     5.14077127e-01     0.00000000e+00    
           5.29696345e-01     5.12322068e-01     0.00000000e+00    
           5.29696345e-01     5.10507941e-01     0.00000000e+00    
           5.30155540e-01     5.08752882e-01     0.00000000e+00    
           5.31043947e-01     5.07171214e-01     0.00000000e+00    
           5.32303810e-01     5.05865932e-01     0.00000000e+00    
           4.68517244e-01     5.32760799e-01     0.00000000e+00    
           4.68509018e-01     5.30844629e-01     0.00000000e+00    
           4.68960851e-01     5.28982460e-01     0.00000000e+00    
           4.69846308e-01     5.27283132e-01     0.00000000e+00    
           4.71113682e-01     5.25845945e-01     0.00000000e+00    
           4.72688884e-01     5.24754822e-01     0.00000000e+00    
           4.74479854e-01     5.24073541e-01     0.00000000e+00    
           4.78284091e-01     5.24073601e-01     0.00000000e+00    
           4.80075032e-01     5.24754822e-01     0.00000000e+00    
           4.81650203e-01     5.25845885e-01     0.00000000e+00    
           4.82917547e-01     5.27283013e-01     0.00000000e+00    
           4.83803004e-01     5.28982282e-01     0.00000000e+00    
           4.84254897e-01     5.30844331e-01     0.00000000e+00    
           4.84246761e-01     5.32760441e-01     0.00000000e+00    
           4.82887864e-01     4.67691004e-01     0.00000000e+00    
           4.81620818e-01     4.69110936e-01     0.00000000e+00    
           4.80051905e-01     4.70188022e-01     0.00000000e+00    
           4.78271484e-01     4.70860153e-01     0.00000000e+00    
           4.76382166e-01     4.71088618e-01     0.00000000e+00    
           4.74492878e-01     4.70860243e-01     0.00000000e+00    
           4.72712427e-01     4.70188200e-01     0.00000000e+00    
           4.71143454e-01     4.69111174e-01     0.00000000e+00    
           4.69876349e-01     4.67691302e-01     0.00000000e+00    
           4.88103986e-01     5.33086061e-01     0.00000000e+00    
           4.87431526e-01     5.31323195e-01     0.00000000e+00    
           4.87231195e-01     5.29447019e-01     0.00000000e+00    
           4.87516224e-01     5.27581930e-01     0.00000000e+00    
           4.88267750e-01     5.25851250e-01     0.00000000e+00    
           4.89436030e-01     5.24369657e-01     0.00000000e+00    
           4.90943670e-01     5.23235261e-01     0.00000000e+00    
           4.92690891e-01     5.22523046e-01     0.00000000e+00    
           4.96432930e-01     5.22523701e-01     0.00000000e+00    
           4.98180002e-01     5.23235798e-01     0.00000000e+00    
           4.99687493e-01     5.24370134e-01     0.00000000e+00    
           5.00855684e-01     5.25851607e-01     0.00000000e+00    
           5.01607120e-01     5.27582109e-01     0.00000000e+00    
           5.01892149e-01     5.29447079e-01     0.00000000e+00    
           5.01691818e-01     5.31323016e-01     0.00000000e+00    
           5.01019418e-01     5.33085763e-01     0.00000000e+00    
           4.98371124e-01     4.67269689e-01     0.00000000e+00    
           4.96539861e-01     4.68064904e-01     0.00000000e+00    
           4.94562000e-01     4.68336672e-01     0.00000000e+00    
           4.92584139e-01     4.68064904e-01     0.00000000e+00    
           4.90752876e-01     4.67269689e-01     0.00000000e+00    
           5.32269001e-01     4.75995690e-01     0.00000000e+00    
           5.31541944e-01     4.77750987e-01     0.00000000e+00    
           5.30385315e-01     4.79258329e-01     0.00000000e+00    
           5.28877974e-01     4.80414927e-01     0.00000000e+00    
[...]
      <PointData>
        <DataArray type="Float32" Name="Displacement" NumberOfComponents="3">
           1.16650783e-03     5.25042065e-04     0.00000000e+00    
           1.14511722e-03     5.16031869e-04     0.00000000e+00    
          -9.87727890e-06     5.34628052e-04     0.00000000e+00    
          -3.38154473e-06     5.18380897e-04     0.00000000e+00    
           9.22556046e-06     5.32218604e-04     0.00000000e+00    
           1.54661841e-03     5.18380897e-04     0.00000000e+00    
           1.54012267e-03     5.34628052e-04     0.00000000e+00    
           2.25270400e-04     7.71595573e-04     0.00000000e+00    
           2.03108255e-04     7.72053085e-04     0.00000000e+00    
           2.14814194e-04     7.57633243e-04     0.00000000e+00    
           2.03108255e-04    -2.94692904e-06     0.00000000e+00    
           2.25270400e-04    -3.40442966e-06     0.00000000e+00    
           5.50886150e-04     7.25764432e-04     0.00000000e+00    
           5.32848004e-04     7.36817601e-04     0.00000000e+00    
           5.29401470e-04     7.16490147e-04     0.00000000e+00    
           5.32848004e-04    -3.81823702e-05     0.00000000e+00    
           5.50886150e-04    -4.92355757e-05     0.00000000e+00    
           1.39192794e-03     1.17561438e-04     0.00000000e+00    
           1.37068960e-03     1.14070965e-04     0.00000000e+00    
           1.41800707e-03     6.66300766e-04     0.00000000e+00    
           1.42064982e-03     6.78853539e-04     0.00000000e+00    
           1.39810448e-03     6.76174765e-04     0.00000000e+00    
          -1.29350170e-04     6.78853539e-04     0.00000000e+00    
          -1.31992914e-04     6.66300766e-04     0.00000000e+00    
           3.59633879e-04     6.18306512e-04     0.00000000e+00    
           3.36843659e-04     6.22841762e-04     0.00000000e+00    
           1.09532918e-03     6.75874006e-04     0.00000000e+00    
           1.07551017e-03     6.62245729e-04     0.00000000e+00    
           7.89041049e-04     2.56055035e-04     0.00000000e+00    
           7.68699334e-04     2.68953823e-04     0.00000000e+00    
           1.18842923e-04     1.48756619e-04     0.00000000e+00    
           1.26966290e-04     1.39253141e-04     0.00000000e+00    
           1.42328790e-04     1.55059199e-04     0.00000000e+00    
           1.67696632e-03     1.39253141e-04     0.00000000e+00    
           1.66884298e-03     1.48756619e-04     0.00000000e+00    
           1.38135292e-04     3.88362736e-04     0.00000000e+00    
           1.17126496e-04     3.62676219e-04     0.00000000e+00    
           3.94829694e-04     1.72531494e-04     0.00000000e+00    
           3.73197923e-04     1.68743994e-04     0.00000000e+00    
           8.26999196e-04     3.32860480e-04     0.00000000e+00    
           8.06722615e-04     3.65434564e-04     0.00000000e+00    
           1.35363673e-03     4.25082981e-04     0.00000000e+00    
           1.33081758e-03     4.22651327e-04     0.00000000e+00    
           4.31648514e-04     4.36690956e-04     0.00000000e+00    
           4.10745211e-04     4.34470421e-04     0.00000000e+00    
           1.21761858e-03     2.87681120e-04     0.00000000e+00    
           1.19416544e-03     2.84718059e-04     0.00000000e+00    
           0.00000000e+00     7.75000022e-04     0.00000000e+00    
           0.00000000e+00     0.00000000e+00     0.00000000e+00    
           1.55000004e-03     0.00000000e+00     0.00000000e+00    
           1.55000004e-03     7.75000022e-04     0.00000000e+00    
           1.16491108e-03     5.27813216e-04     0.00000000e+00    
           1.16286683e-03     5.29516081e-04     0.00000000e+00    
           1.16032118e-03     5.30856429e-04     0.00000000e+00    
           1.15742767e-03     5.31903061e-04     0.00000000e+00    
           1.15397095e-03     5.32087230e-04     0.00000000e+00    
           1.15042960e-03     5.31071099e-04     0.00000000e+00    
           1.14804052e-03     5.29350655e-04     0.00000000e+00    
           1.14607485e-03     5.27256110e-04     0.00000000e+00    
           1.14423619e-03     5.24400268e-04     0.00000000e+00    
           1.14368869e-03     5.21197217e-04     0.00000000e+00    
           1.14400289e-03     5.18404820e-04     0.00000000e+00    
           1.14657881e-03     5.13881503e-04     0.00000000e+00    
           1.14880037e-03     5.12342434e-04     0.00000000e+00    
           1.15120364e-03     5.11289807e-04     0.00000000e+00    
           1.15406967e-03     5.10488171e-04     0.00000000e+00    
           1.15759473e-03     5.10493468e-04     0.00000000e+00    
           1.16168859e-03     5.11561288e-04     0.00000000e+00    
           1.16484903e-03     5.13926556e-04     0.00000000e+00    
           1.16646488e-03     5.16502361e-04     0.00000000e+00    
           1.16699911e-03     5.18559304e-04     0.00000000e+00    
           1.16706593e-03     5.20485686e-04     0.00000000e+00    
           1.16686779e-03     5.22603688e-04     0.00000000e+00    
           1.23575546e-07     5.17307722e-04     0.00000000e+00    
           3.75410013e-06     5.18244982e-04     0.00000000e+00    
           6.09339395e-06     5.19788766e-04     0.00000000e+00    
           8.03989769e-06     5.21665032e-04     0.00000000e+00    
           9.64384981e-06     5.24275878e-04     0.00000000e+00    
           1.03704160e-05     5.27180266e-04     0.00000000e+00    
           1.00478928e-05     5.29972545e-04     0.00000000e+00    
           7.85091652e-06     5.33895392e-04     0.00000000e+00    
           6.32747924e-06     5.35168627e-04     0.00000000e+00    
           4.39770974e-06     5.36472828e-04     0.00000000e+00    
           2.10252188e-06     5.37476561e-04     0.00000000e+00    
          -7.81188476e-07     5.38143970e-04     0.00000000e+00    
          -4.48409173e-06     5.38198045e-04     0.00000000e+00    
          -7.85602151e-06     5.36438951e-04     0.00000000e+00    
           1.53897644e-03     5.32795093e-04     0.00000000e+00    
           1.53812824e-03     5.30812424e-04     0.00000000e+00    
           1.53751497e-03     5.27901808e-04     0.00000000e+00    
           1.53774011e-03     5.24962787e-04     0.00000000e+00    
           1.53910473e-03     5.22314687e-04     0.00000000e+00    
           1.54081313e-03     5.20521018e-04     0.00000000e+00    
           1.54266856e-03     5.19595749e-04     0.00000000e+00    
           1.54454645e-03     5.19027410e-04     0.00000000e+00    
           2.02559240e-04     7.69375125e-04     0.00000000e+00    
           2.02741576e-04     7.67141581e-04     0.00000000e+00    
           2.03302494e-04     7.65218399e-04     0.00000000e+00    
           2.04219119e-04     7.63240561e-04     0.00000000e+00    
           2.05696822e-04     7.61278847e-04     0.00000000e+00    
           2.08055804e-04     7.59319228e-04     0.00000000e+00    
           2.11369974e-04     7.57858739e-04     0.00000000e+00    
           2.18003886e-04     7.58341164e-04     0.00000000e+00    
           2.20037749e-04     7.59221788e-04     0.00000000e+00    
           2.21935377e-04     7.60313007e-04     0.00000000e+00    
           2.23709038e-04     7.61777803e-04     0.00000000e+00    
           2.25084208e-04     7.64262513e-04     0.00000000e+00    
           2.25611628e-04     7.66624522e-04     0.00000000e+00    
           2.25764379e-04     7.68924248e-04     0.00000000e+00    
           2.24094038e-04    -8.05896832e-07     0.00000000e+00    
           2.22310904e-04     1.59957915e-06     0.00000000e+00    
           2.19838636e-04     3.33441562e-06     0.00000000e+00    
           2.16577027e-04     4.72655165e-06     0.00000000e+00    
           2.13363543e-04     4.67365362e-06     0.00000000e+00    
           2.10785685e-04     4.13517546e-06     0.00000000e+00    
           2.08589234e-04     3.39489043e-06     0.00000000e+00    
           2.06394936e-04     1.95744155e-06     0.00000000e+00    
           2.04190539e-04    -3.59217523e-07     0.00000000e+00    
           5.30064106e-04     7.35520327e-04     0.00000000e+00    
           5.27672702e-04     7.33895460e-04     0.00000000e+00    
           5.25680953e-04     7.31880544e-04     0.00000000e+00    
           5.24179079e-04     7.29091058e-04     0.00000000e+00    
           5.23928553e-04     7.26187136e-04     0.00000000e+00    
           5.24110394e-04     7.23780133e-04     0.00000000e+00    
           5.24820061e-04     7.21372431e-04     0.00000000e+00    
           5.26201620e-04     7.18867057e-04     0.00000000e+00    
           5.33566927e-04     7.15165341e-04     0.00000000e+00    
           5.37350716e-04     7.15183618e-04     0.00000000e+00    
           5.40551147e-04     7.15664122e-04     0.00000000e+00    
           5.43140457e-04     7.16237642e-04     0.00000000e+00    
           5.45359915e-04     7.16903596e-04     0.00000000e+00    
           5.47554751e-04     7.18051684e-04     0.00000000e+00    
           5.49366581e-04     7.19907344e-04     0.00000000e+00    
           5.50537778e-04     7.22502708e-04     0.00000000e+00    
           5.50149067e-04    -4.55559675e-05     0.00000000e+00    
           5.47853997e-04    -4.19365606e-05     0.00000000e+00    
           5.44360082e-04    -3.90796740e-05     0.00000000e+00    
           5.40244742e-04    -3.77408796e-05     0.00000000e+00    
           5.36489475e-04    -3.75245654e-05     0.00000000e+00    
           1.39090244e-03     1.19185766e-04     0.00000000e+00    
           1.38970057e-03     1.20363307e-04     0.00000000e+00    
           1.38829416e-03     1.21489116e-04     0.00000000e+00    
           1.38573232e-03     1.23492195e-04     0.00000000e+00    
           1.38198503e-03     1.24649421e-04     0.00000000e+00    
           1.37857685e-03     1.24444559e-04     0.00000000e+00    
           1.37620617e-03     1.23818463e-04     0.00000000e+00    
           1.37442688e-03     1.22815021e-04     0.00000000e+00    
           1.37303397e-03     1.21534489e-04     0.00000000e+00    
           1.37155422e-03     1.19594784e-04     0.00000000e+00    
           1.37067609e-03     1.17016803e-04     0.00000000e+00    
           1.37138937e-03     1.11448979e-04     0.00000000e+00    
           1.37286831e-03     1.08753244e-04     0.00000000e+00    
           1.37504074e-03     1.06524334e-04     0.00000000e+00    
           1.37793622e-03     1.04992730e-04     0.00000000e+00    
           1.38121611e-03     1.04500468e-04     0.00000000e+00    
           1.38406013e-03     1.04815175e-04     0.00000000e+00    
           1.38664944e-03     1.05670537e-04     0.00000000e+00    
           1.38921302e-03     1.07115135e-04     0.00000000e+00    
           1.39135041e-03     1.09792505e-04     0.00000000e+00    
           1.39239349e-03     1.12776783e-04     0.00000000e+00    
           1.39255251e-03     1.15423056e-04     0.00000000e+00    
           1.41917472e-03     6.81324862e-04     0.00000000e+00    
           1.41684501e-03     6.83635997e-04     0.00000000e+00    
           1.41361903e-03     6.85360923e-04     0.00000000e+00    
           1.41033146e-03     6.85844629e-04     0.00000000e+00    
           1.40718988e-03     6.85640669e-04     0.00000000e+00    
           1.40399439e-03     6.84397644e-04     0.00000000e+00    
           1.40151149e-03     6.82029175e-04     0.00000000e+00    
           1.39986607e-03     6.79728342e-04     0.00000000e+00    
           1.39884034e-03     6.77900156e-04     0.00000000e+00    
           1.39773462e-03     6.74081617e-04     0.00000000e+00    
           1.39804068e-03     6.71928050e-04     0.00000000e+00    
           1.39893068e-03     6.69677276e-04     0.00000000e+00    
           1.40070647e-03     6.67341985e-04     0.00000000e+00    
           1.40312139e-03     6.65254483e-04     0.00000000e+00    
           1.40708208e-03     6.63793297e-04     0.00000000e+00    
           1.41077628e-03     6.63808547e-04     0.00000000e+00    
           1.41359039e-03     6.64267689e-04     0.00000000e+00    
           1.41586503e-03     6.65081025e-04     0.00000000e+00    
          -1.30239656e-04     6.68162538e-04     0.00000000e+00    
          -1.29000589e-04     6.70483103e-04     0.00000000e+00    
          -1.28498723e-04     6.72698137e-04     0.00000000e+00    
          -1.28474450e-04     6.74928247e-04     0.00000000e+00    
          -1.28726024e-04     6.76761207e-04     0.00000000e+00    
           3.59878904e-04     6.20988139e-04     0.00000000e+00    
           3.59464670e-04     6.23740023e-04     0.00000000e+00    
           3.58288089e-04     6.25713321e-04     0.00000000e+00    
           3.57145909e-04     6.27405476e-04     0.00000000e+00    
           3.55348369e-04     6.29135699e-04     0.00000000e+00    
           3.52245203e-04     6.31041301e-04     0.00000000e+00    
           3.48628702e-04     6.31325529e-04     0.00000000e+00    
           3.45905690e-04     6.31044386e-04     0.00000000e+00    
           3.43503780e-04     6.30552706e-04     0.00000000e+00    
           3.41293635e-04     6.29692222e-04     0.00000000e+00    
           3.38915415e-04     6.27843139e-04     0.00000000e+00    
           3.37561709e-04     6.25102664e-04     0.00000000e+00    
           3.36646626e-04     6.20526145e-04     0.00000000e+00    
           3.36825120e-04     6.18463790e-04     0.00000000e+00    
           3.37468431e-04     6.16066740e-04     0.00000000e+00    
           3.39022547e-04     6.13398443e-04     0.00000000e+00    
           3.41642211e-04     6.11233816e-04     0.00000000e+00    
           3.45041335e-04     6.09949639e-04     0.00000000e+00    
           3.47568915e-04     6.09532231e-04     0.00000000e+00    
           3.49981245e-04     6.09414652e-04     0.00000000e+00    
           3.52754461e-04     6.09979092e-04     0.00000000e+00    
           3.55333905e-04     6.11525669e-04     0.00000000e+00    
           3.57413810e-04     6.13615965e-04     0.00000000e+00    
           3.58857273e-04     6.15901954e-04     0.00000000e+00    
           1.09317841e-03     6.77485019e-04     0.00000000e+00    
           1.09035964e-03     6.78834796e-04     0.00000000e+00    
           1.08701189e-03     6.79599412e-04     0.00000000e+00    
           1.08340255e-03     6.79616758e-04     0.00000000e+00    
           1.07940868e-03     6.78588345e-04     0.00000000e+00    
           1.07571413e-03     6.76317315e-04     0.00000000e+00    
           1.07321003e-03     6.73076254e-04     0.00000000e+00    
           1.07226439e-03     6.69653295e-04     0.00000000e+00    
           1.07234751e-03     6.66496053e-04     0.00000000e+00    
           1.07366371e-03     6.64022227e-04     0.00000000e+00    
           1.07767992e-03     6.60984602e-04     0.00000000e+00    
           1.08017994e-03     6.59748213e-04     0.00000000e+00    
           1.08330813e-03     6.58704143e-04     0.00000000e+00    
           1.08738628e-03     6.57846802e-04     0.00000000e+00    
           1.09167839e-03     6.58810779e-04     0.00000000e+00    
           1.09456084e-03     6.60818652e-04     0.00000000e+00    
           1.09655876e-03     6.63345738e-04     0.00000000e+00    
           1.09830033e-03     6.66782958e-04     0.00000000e+00    
           1.09828380e-03     6.70803711e-04     0.00000000e+00    
           1.09711511e-03     6.73777075e-04     0.00000000e+00    
           7.90639257e-04     2.57970678e-04     0.00000000e+00    
           7.91463302e-04     2.60341767e-04     0.00000000e+00    
           7.91800558e-04     2.63586146e-04     0.00000000e+00    
           7.90293328e-04     2.67196301e-04     0.00000000e+00    
           7.88421487e-04     2.69920012e-04     0.00000000e+00    
           7.86459539e-04     2.72032048e-04     0.00000000e+00    
           7.83671625e-04     2.73565383e-04     0.00000000e+00    
           7.79607042e-04     2.74105667e-04     0.00000000e+00    
           7.75742577e-04     2.73163227e-04     0.00000000e+00    
           7.72944302e-04     2.71845696e-04     0.00000000e+00    
           7.70607789e-04     2.70491932e-04     0.00000000e+00    
           7.67072255e-04     2.67350755e-04     0.00000000e+00    
           7.65899720e-04     2.65201117e-04     0.00000000e+00    
           7.65301113e-04     2.62477057e-04     0.00000000e+00    
           7.65768520e-04     2.59269000e-04     0.00000000e+00    
           7.67647696e-04     2.55878549e-04     0.00000000e+00    
           7.71055231e-04     2.53044971e-04     0.00000000e+00    
           7.74865912e-04     2.51671998e-04     0.00000000e+00    
           7.78741261e-04     2.51510617e-04     0.00000000e+00    
           7.82141404e-04     2.52326688e-04     0.00000000e+00    
           7.84817792e-04     2.53256847e-04     0.00000000e+00    
           7.87164492e-04     2.54550425e-04     0.00000000e+00    
           1.29617096e-04     1.38551681e-04     0.00000000e+00    
           1.32842906e-04     1.37757888e-04     0.00000000e+00    
           1.36529052e-04     1.38048374e-04     0.00000000e+00    
           1.39699798e-04     1.39560172e-04     0.00000000e+00    
           1.41801414e-04     1.41488068e-04     0.00000000e+00    
           1.43243684e-04     1.43730795e-04     0.00000000e+00    
           1.44616293e-04     1.46697828e-04     0.00000000e+00    
           1.44774182e-04     1.50433087e-04     0.00000000e+00    
           1.43790458e-04     1.53170957e-04     0.00000000e+00    
           1.40594668e-04     1.56641050e-04     0.00000000e+00    
           1.38571064e-04     1.58121562e-04     0.00000000e+00    
           1.35905197e-04     1.59813033e-04     0.00000000e+00    
           1.32558998e-04     1.60962169e-04     0.00000000e+00    
           1.29073902e-04     1.60641503e-04     0.00000000e+00    
           1.26336250e-04     1.59505638e-04     0.00000000e+00    
           1.23724632e-04     1.57862596e-04     0.00000000e+00    
           1.21361438e-04     1.55321308e-04     0.00000000e+00    
           1.19508855e-04     1.52208071e-04     0.00000000e+00    
           1.66929606e-03     1.45471364e-04     0.00000000e+00    
           1.67059142e-03     1.42742749e-04     0.00000000e+00    
           1.67257502e-03     1.40938733e-04     0.00000000e+00    
           1.67475350e-03     1.39936761e-04     0.00000000e+00    
           1.34375936e-04     3.89563938e-04     0.00000000e+00    
           1.30528671e-04     3.89798457e-04     0.00000000e+00    
           1.26823099e-04     3.89576657e-04     0.00000000e+00    
           1.22687678e-04     3.89028894e-04     0.00000000e+00    
           1.18064854e-04     3.87624314e-04     0.00000000e+00    
           1.14257957e-04     3.84817744e-04     0.00000000e+00    
           1.11843248e-04     3.81025340e-04     0.00000000e+00    
           1.10794121e-04     3.77117132e-04     0.00000000e+00    
           1.10594396e-04     3.72837036e-04     0.00000000e+00    
           1.11676774e-04     3.68751353e-04     0.00000000e+00    
           1.14078583e-04     3.65256390e-04     0.00000000e+00    
           1.20573786e-04     3.60880920e-04     0.00000000e+00    
           1.24414393e-04     3.59433296e-04     0.00000000e+00    
           1.28976768e-04     3.58701305e-04     0.00000000e+00    
           1.33532871e-04     3.59477155e-04     0.00000000e+00    
           1.37414288e-04     3.61458340e-04     0.00000000e+00    
           1.40457822e-04     3.64364387e-04     0.00000000e+00    
           1.42829784e-04     3.67809698e-04     0.00000000e+00    
           1.44401391e-04     3.72172333e-04     0.00000000e+00    
           1.44836158e-04     3.76895361e-04     0.00000000e+00    