<?xml version="1.0"?>
<VTKFile type="UnstructuredGrid" version="0.1">
  <UnstructuredGrid>
    <Piece NumberOfPoints="1034" NumberOfCells="1614">
      <Points>
        <DataArray type="Float32" NumberOfComponents="3">
           5.21582007e-01     5.11657000e-01     0.00000000e+00    
           5.07319987e-01     5.11657000e-01     0.00000000e+00    
           4.65243995e-01     5.17907977e-01     0.00000000e+00    
           4.65243995e-01     5.04921973e-01     0.00000000e+00    
           4.75246996e-01     5.11415005e-01     0.00000000e+00    
           5.33852994e-01     5.04921973e-01     0.00000000e+00    
           5.33852994e-01     5.17907977e-01     0.00000000e+00    
           4.83779997e-01     5.34618974e-01     0.00000000e+00    
           4.68984991e-01     5.34618974e-01     0.00000000e+00    
           4.76381987e-01     5.23841977e-01     0.00000000e+00    
           4.68984991e-01     4.66010004e-01     0.00000000e+00    
           4.83779997e-01     4.66010004e-01     0.00000000e+00    
           4.99920011e-01     5.34618974e-01     0.00000000e+00    
           4.89203990e-01     5.34618974e-01     0.00000000e+00    
           4.94562000e-01     5.22280991e-01     0.00000000e+00    
           4.89203990e-01     4.66010004e-01     0.00000000e+00    
           4.99920011e-01     4.66010004e-01     0.00000000e+00    
           5.32517016e-01     4.74112004e-01     0.00000000e+00    
           5.17961025e-01     4.74112004e-01     0.00000000e+00    
           5.33852994e-01     5.19801974e-01     0.00000000e+00    
           5.33852994e-01     5.29603004e-01     0.00000000e+00    
           5.19536972e-01     5.24702013e-01     0.00000000e+00    
           4.65243995e-01     5.29603004e-01     0.00000000e+00    
           4.65243995e-01     5.19801974e-01     0.00000000e+00    
           4.92487997e-01     5.17117977e-01     0.00000000e+00    
           4.76904988e-01     5.17117977e-01     0.00000000e+00    
           5.17996013e-01     5.27033985e-01     0.00000000e+00    
           5.04473984e-01     5.27033985e-01     0.00000000e+00    
           5.08446991e-01     4.83435005e-01     0.00000000e+00    
           4.94414002e-01     4.83435005e-01     0.00000000e+00    
           4.65243995e-01     4.83101994e-01     0.00000000e+00    
           4.65243995e-01     4.74415004e-01     0.00000000e+00    
           4.78336990e-01     4.78758007e-01     0.00000000e+00    
           5.33852994e-01     4.74415004e-01     0.00000000e+00    
           5.33852994e-01     4.83101994e-01     0.00000000e+00    
           4.80668008e-01     4.95810986e-01     0.00000000e+00    
           4.66084987e-01     4.95810986e-01     0.00000000e+00    
           4.93930012e-01     4.79214013e-01     0.00000000e+00    
           4.78967011e-01     4.79214013e-01     0.00000000e+00    
           5.09284973e-01     4.97658014e-01     0.00000000e+00    
           4.95503992e-01     4.97658014e-01     0.00000000e+00    
           5.33011973e-01     5.01751006e-01     0.00000000e+00    
           5.17829001e-01     5.01751006e-01     0.00000000e+00    
           4.95451003e-01     5.00564992e-01     0.00000000e+00    
           4.80922014e-01     5.00564992e-01     0.00000000e+00    
           5.25367022e-01     4.88312006e-01     0.00000000e+00    
           5.09521008e-01     4.88312006e-01     0.00000000e+00    
           4.65243995e-01     5.34618974e-01     0.00000000e+00    
           4.65243995e-01     4.66010004e-01     0.00000000e+00    
           5.33852994e-01     4.66010004e-01     0.00000000e+00    
           5.33852994e-01     5.34618974e-01     0.00000000e+00    
           5.21338999e-01     5.13502657e-01     0.00000000e+00    
           5.20626605e-01     5.15222490e-01     0.00000000e+00    
           5.19493401e-01     5.16699374e-01     0.00000000e+00    
           5.18016517e-01     5.17832637e-01     0.00000000e+00    
           5.16296625e-01     5.18545032e-01     0.00000000e+00    
           5.14451027e-01     5.18787980e-01     0.00000000e+00    
           5.12605369e-01     5.18545032e-01     0.00000000e+00    
           5.10885477e-01     5.17832637e-01     0.00000000e+00    
           5.09408593e-01     5.16699374e-01     0.00000000e+00    
           5.08275390e-01     5.15222490e-01     0.00000000e+00    
           5.07562995e-01     5.13502657e-01     0.00000000e+00    
           5.07562995e-01     5.09811342e-01     0.00000000e+00    
           5.08275390e-01     5.08091509e-01     0.00000000e+00    
           5.09408593e-01     5.06614625e-01     0.00000000e+00    
           5.10885477e-01     5.05481362e-01     0.00000000e+00    
           5.12605369e-01     5.04768968e-01     0.00000000e+00    
           5.14451027e-01     5.04526019e-01     0.00000000e+00    
           5.16296625e-01     5.04768968e-01     0.00000000e+00    
           5.18016517e-01     5.05481362e-01     0.00000000e+00    
           5.19493401e-01     5.06614625e-01     0.00000000e+00    
           5.20626605e-01     5.08091509e-01     0.00000000e+00    
           5.21338999e-01     5.09811342e-01     0.00000000e+00    
           4.66931671e-01     5.04409373e-01     0.00000000e+00    
           4.68693614e-01     5.04328012e-01     0.00000000e+00    
           4.70421344e-01     5.04682958e-01     0.00000000e+00    
           4.72008497e-01     5.05452335e-01     0.00000000e+00    
           4.73357379e-01     5.06588817e-01     0.00000000e+00    
           4.74384934e-01     5.08022368e-01     0.00000000e+00    
           4.75027919e-01     5.09664834e-01     0.00000000e+00    
           4.75028187e-01     5.13165236e-01     0.00000000e+00    
           4.74385172e-01     5.14807761e-01     0.00000000e+00    
           4.73357558e-01     5.16241372e-01     0.00000000e+00    
           4.72008646e-01     5.17377913e-01     0.00000000e+00    
           4.70421433e-01     5.18147290e-01     0.00000000e+00    
           4.68693614e-01     5.18502235e-01     0.00000000e+00    
           4.66931641e-01     5.18420875e-01     0.00000000e+00    
           5.32303810e-01     5.16964078e-01     0.00000000e+00    
           5.31043947e-01     5.15658796e-01     0.00000000e+00    
           5.30155540e-01     5.14077127e-01     0.00000000e+00    
           5.29696345e-01     5.12322068e-01     0.00000000e+00    
           5.29696345e-01     5.10507941e-01     0.00000000e+00    
           5.30155540e-01     5.08752882e-01     0.00000000e+00    
           5.31043947e-01     5.07171214e-01     0.00000000e+00    
           5.32303810e-01     5.05865932e-01     0.00000000e+00    
           4.68517244e-01     5.32760799e-01     0.00000000e+00    
           4.68509018e-01     5.30844629e-01     0.00000000e+00    
           4.68960851e-01     5.28982460e-01     0.00000000e+00    
           4.69846308e-01     5.27283132e-01     0.00000000e+00    
           4.71113682e-01     5.25845945e-01     0.00000000e+00    
           4.72688884e-01     5.24754822e-01     0.00000000e+00    
           4.74479854e-01     5.24073541e-01     0.00000000e+00    
           4.78284091e-01     5.24073601e-01     0.00000000e+00    
           4.80075032e-01     5.24754822e-01     0.00000000e+00    
           4.81650203e-01     5.25845885e-01     0.00000000e+00    
           4.82917547e-01     5.27283013e-01     0.00000000e+00    
           4.83803004e-01     5.28982282e-01     0.00000000e+00    
           4.84254897e-01     5.30844331e-01     0.00000000e+00    
           4.84246761e-01     5.32760441e-01     0.00000000e+00    
           4.82887864e-01     4.67691004e-01     0.00000000e+00    
           4.81620818e-01     4.69110936e-01     0.00000000e+00    
           4.80051905e-01     4.70188022e-01     0.00000000e+00    
           4.78271484e-01     4.70860153e-01     0.00000000e+00    
           4.76382166e-01     4.71088618e-01     0.00000000e+00    
           4.74492878e-01     4.70860243e-01     0.00000000e+00    
           4.72712427e-01     4.70188200e-01     0.00000000e+00    
           4.71143454e-01     4.69111174e-01     0.00000000e+00    
           4.69876349e-01     4.67691302e-01     0.00000000e+00    
           4.88103986e-01     5.33086061e-01     0.00000000e+00    
           4.87431526e-01     5.31323195e-01     0.00000000e+00    
           4.87231195e-01     5.29447019e-01     0.00000000e+00    
           4.87516224e-01     5.27581930e-01     0.00000000e+00    
           4.88267750e-01     5.25851250e-01     0.00000000e+00    
           4.89436030e-01     5.24369657e-01     0.00000000e+00    
           4.90943670e-01     5.23235261e-01     0.00000000e+00    
           4.92690891e-01     5.22523046e-01     0.00000000e+00    
           4.96432930e-01     5.22523701e-01     0.00000000e+00    
           4.98180002e-01     5.23235798e-01     0.00000000e+00    
           4.99687493e-01     5.24370134e-01     0.00000000e+00    
           5.00855684e-01     5.25851607e-01     0.00000000e+00    
           5.01607120e-01     5.27582109e-01     0.00000000e+00    
           5.01892149e-01     5.29447079e-01     0.00000000e+00    
           5.01691818e-01     5.31323016e-01     0.00000000e+00    
           5.01019418e-01     5.33085763e-01     0.00000000e+00    
           4.98371124e-01     4.67269689e-01     0.00000000e+00    
           4.96539861e-01     4.68064904e-01     0.00000000e+00    
           4.94562000e-01     4.68336672e-01     0.00000000e+00    
           4.92584139e-01     4.68064904e-01     0.00000000e+00    
           4.90752876e-01     4.67269689e-01     0.00000000e+00    
           5.32269001e-01     4.75995690e-01     0.00000000e+00    
           5.31541944e-01     4.77750987e-01     0.00000000e+00    
           5.30385315e-01     4.79258329e-01     0.00000000e+00    
           5.28877974e-01     4.80414927e-01     0.00000000e+00    
[...]
      <PointData>
        <DataArray type="Float32" Name="Displacement" NumberOfComponents="3">
           7.15141592e-04     1.36353310e-05     0.00000000e+00    
           7.03281083e-04     3.75039162e-05     0.00000000e+00    
           3.44696251e-04     6.79332015e-06     0.00000000e+00    
           2.97053892e-04     5.69319445e-06     0.00000000e+00    
           3.33353004e-04    -1.69683371e-05     0.00000000e+00    
           7.97053915e-04     5.69319445e-06     0.00000000e+00    
           8.44696246e-04     6.79332015e-06     0.00000000e+00    
           5.55775885e-04    -3.27801899e-05     0.00000000e+00    
           5.42258844e-04     2.71580393e-05     0.00000000e+00    
           4.97113972e-04    -2.21055734e-06     0.00000000e+00    
           4.22588600e-05     2.71580393e-05     0.00000000e+00    
           5.57758613e-05    -3.27801899e-05     0.00000000e+00    
           6.51520852e-04    -5.28047276e-05     0.00000000e+00    
           6.41953957e-04    -2.33337432e-05     0.00000000e+00    
           6.01610576e-04    -4.08646811e-05     0.00000000e+00    
           1.41953933e-04    -2.33337432e-05     0.00000000e+00    
           1.51520857e-04    -5.28047276e-05     0.00000000e+00    
           5.28053788e-04     1.46406246e-05     0.00000000e+00    
           5.11766935e-04     5.87816648e-05     0.00000000e+00    
           8.42973008e-04    -1.01490104e-06     0.00000000e+00    
           8.95395584e-04    -2.39251426e-06     0.00000000e+00    
           8.51690536e-04     5.86270144e-05     0.00000000e+00    
           3.95395618e-04    -2.39251426e-06     0.00000000e+00    
           3.42973013e-04    -1.01490104e-06     0.00000000e+00    
           4.88076970e-04    -4.81353709e-05     0.00000000e+00    
           4.71702922e-04     1.83391894e-05     0.00000000e+00    
           7.81220791e-04     2.29835805e-05     0.00000000e+00    
           7.62537413e-04     3.87499349e-05     0.00000000e+00    
           3.96910531e-04    -1.98321904e-05     0.00000000e+00    
           3.78024153e-04     2.33897790e-05     0.00000000e+00    
           1.44215155e-04     4.31090157e-05     0.00000000e+00    
           9.18749429e-05     4.12707013e-05     0.00000000e+00    
           1.36724382e-04    -2.34107047e-05     0.00000000e+00    
           5.91874938e-04     4.12707013e-05     0.00000000e+00    
           6.44215150e-04     4.31090157e-05     0.00000000e+00    
           2.92024488e-04    -2.17510660e-05     0.00000000e+00    
           2.74315389e-04     3.41948726e-05     0.00000000e+00    
           2.32366714e-04    -4.80706149e-05     0.00000000e+00    
           2.10198676e-04     1.39676285e-05     0.00000000e+00    
           4.71619220e-04    -4.30371483e-06     0.00000000e+00    
           4.56265203e-04     1.94795866e-05     0.00000000e+00    
           7.14102236e-04    -1.07697906e-05     0.00000000e+00    
           6.99135708e-04     3.83877195e-05     0.00000000e+00    
           4.05688275e-04    -3.69377340e-05     0.00000000e+00    
           3.85586347e-04    -7.99307418e-06     0.00000000e+00    
           5.39744738e-04     2.59138160e-05     0.00000000e+00    
           5.22455142e-04     5.72317367e-05     0.00000000e+00    
           5.00000024e-04     0.00000000e+00     0.00000000e+00    
           0.00000000e+00     0.00000000e+00     0.00000000e+00    
           5.00000024e-04     0.00000000e+00     0.00000000e+00    
           1.00000005e-03     0.00000000e+00     0.00000000e+00    
           7.19865784e-04     1.41914643e-05     0.00000000e+00    
           7.24198297e-04     1.59166520e-05     0.00000000e+00    
           7.27569568e-04     1.81200903e-05     0.00000000e+00    
           7.29579362e-04     2.04121807e-05     0.00000000e+00    
           7.30187865e-04     2.27273194e-05     0.00000000e+00    
           7.29492982e-04     2.51421297e-05     0.00000000e+00    
           7.27756822e-04     2.82307501e-05     0.00000000e+00    
           7.24416459e-04     3.16985279e-05     0.00000000e+00    
           7.19485339e-04     3.47601090e-05     0.00000000e+00    
           7.14203634e-04     3.67052744e-05     0.00000000e+00    
           7.08716398e-04     3.76140742e-05     0.00000000e+00    
           6.98201940e-04     3.62276041e-05     0.00000000e+00    
           6.93868205e-04     3.41410414e-05     0.00000000e+00    
           6.90754037e-04     3.15698453e-05     0.00000000e+00    
           6.89065841e-04     2.89399741e-05     0.00000000e+00    
           6.89311302e-04     2.61471159e-05     0.00000000e+00    
           6.91590947e-04     2.34485688e-05     0.00000000e+00    
           6.94932649e-04     2.13734947e-05     0.00000000e+00    
           6.99034252e-04     2.00346894e-05     0.00000000e+00    
           7.03403959e-04     1.79546550e-05     0.00000000e+00    
           7.07154453e-04     1.59713145e-05     0.00000000e+00    
           7.10624096e-04     1.41979244e-05     0.00000000e+00    
           2.98420404e-04     2.67098721e-06     0.00000000e+00    
           3.00779386e-04     8.62811120e-08     0.00000000e+00    
           3.03638575e-04    -3.41594296e-06     0.00000000e+00    
           3.07829352e-04    -7.56624513e-06     0.00000000e+00    
           3.13082768e-04    -1.17361178e-05     0.00000000e+00    
           3.19381710e-04    -1.48705603e-05     0.00000000e+00    
           3.26224574e-04    -1.66177815e-05     0.00000000e+00    
           3.39834020e-04    -1.62902779e-05     0.00000000e+00    
           3.44824773e-04    -1.46395787e-05     0.00000000e+00    
           3.48213158e-04    -1.20716395e-05     0.00000000e+00    
           3.50015820e-04    -8.57320174e-06     0.00000000e+00    
           3.50692717e-04    -4.46002150e-06     0.00000000e+00    
           3.49955400e-04    -2.08925002e-07     0.00000000e+00    
           3.47830297e-04     3.38230302e-06     0.00000000e+00    
           8.40716821e-04     1.09900520e-05     0.00000000e+00    
           8.35530576e-04     1.47967539e-05     0.00000000e+00    
           8.28969700e-04     1.76938938e-05     0.00000000e+00    
           8.21585767e-04     1.88162066e-05     0.00000000e+00    
           8.13792110e-04     1.81108226e-05     0.00000000e+00    
           8.06522788e-04     1.57039631e-05     0.00000000e+00    
           8.01284448e-04     1.23384616e-05     0.00000000e+00    
           7.98352354e-04     8.68809457e-06     0.00000000e+00    
           5.31582686e-04     2.84055604e-05     0.00000000e+00    
           5.21149312e-04     2.77240906e-05     0.00000000e+00    
           5.11832128e-04     2.55885807e-05     0.00000000e+00    
           5.04630734e-04     2.19799240e-05     0.00000000e+00    
           4.99791175e-04     1.68531369e-05     0.00000000e+00    
           4.97017114e-04     1.06294210e-05     0.00000000e+00    
           4.96202207e-04     3.98323937e-06     0.00000000e+00    
           4.99837101e-04    -8.00278121e-06     0.00000000e+00    
           5.04109601e-04    -1.42635890e-05     0.00000000e+00    
           5.10622107e-04    -2.11936695e-05     0.00000000e+00    
           5.19177585e-04    -2.76371647e-05     0.00000000e+00    
           5.29230922e-04    -3.25091642e-05     0.00000000e+00    
           5.38896769e-04    -3.50106784e-05     0.00000000e+00    
           5.47829608e-04    -3.50533992e-05     0.00000000e+00    
           6.29054484e-05    -2.85794085e-05     0.00000000e+00    
           6.88425498e-05    -2.28629324e-05     0.00000000e+00    
           7.29827370e-05    -1.64132944e-05     0.00000000e+00    
           7.49112733e-05    -9.88961619e-06     0.00000000e+00    
           7.44854187e-05    -3.49437119e-06     0.00000000e+00    
           7.21897522e-05     2.92566529e-06     0.00000000e+00    
           6.76634154e-05     1.06312664e-05     0.00000000e+00    
           6.08418668e-05     1.78635655e-05     0.00000000e+00    
           5.20095236e-05     2.36064570e-05     0.00000000e+00    
           6.34843833e-04    -1.98697035e-05     0.00000000e+00    
           6.27350761e-04    -1.77389720e-05     0.00000000e+00    
           6.20163628e-04    -1.72408800e-05     0.00000000e+00    
           6.13546406e-04    -1.85638983e-05     0.00000000e+00    
           6.07003516e-04    -2.23596908e-05     0.00000000e+00    
           6.02237647e-04    -2.69599859e-05     0.00000000e+00    
           5.99747524e-04    -3.16921469e-05     0.00000000e+00    
           5.99303690e-04    -3.62338069e-05     0.00000000e+00    
           6.05641340e-04    -4.54662659e-05     0.00000000e+00    
           6.11032767e-04    -4.94053129e-05     0.00000000e+00    
           6.17464830e-04    -5.25936848e-05     0.00000000e+00    
           6.24376873e-04    -5.52889214e-05     0.00000000e+00    
           6.31204457e-04    -5.73799880e-05     0.00000000e+00    
           6.37608464e-04    -5.81771892e-05     0.00000000e+00    
           6.42981555e-04    -5.77964420e-05     0.00000000e+00    
           6.47576468e-04    -5.58238280e-05     0.00000000e+00    
           1.54506721e-04    -4.85729179e-05     0.00000000e+00    
           1.56035458e-04    -4.36554292e-05     0.00000000e+00    
           1.55766480e-04    -3.84495615e-05     0.00000000e+00    
           1.53185290e-04    -3.30921248e-05     0.00000000e+00    
           1.48517356e-04    -2.79691976e-05     0.00000000e+00    
           5.35823463e-04     1.62760589e-05     0.00000000e+00    
           5.41378336e-04     1.92495390e-05     0.00000000e+00    
           5.44652750e-04     2.22733834e-05     0.00000000e+00    
           5.45571907e-04     2.66623811e-05     0.00000000e+00    
           5.45211718e-04     3.15047473e-05     0.00000000e+00    
           5.43724163e-04     3.65040287e-05     0.00000000e+00    
           5.40590961e-04     4.08760679e-05     0.00000000e+00    
           5.36960433e-04     4.57703500e-05     0.00000000e+00    
           5.32573438e-04     5.04261589e-05     0.00000000e+00    
           5.26518561e-04     5.46902920e-05     0.00000000e+00    
           5.19347377e-04     5.76768871e-05     0.00000000e+00    
           5.04452910e-04     5.81888962e-05     0.00000000e+00    
           4.97794943e-04     5.59926884e-05     0.00000000e+00    
           4.92291467e-04     5.25806972e-05     0.00000000e+00    
           4.88381716e-04     4.81519855e-05     0.00000000e+00    
           4.86455538e-04     4.30449218e-05     0.00000000e+00    
           4.86446632e-04     3.72183858e-05     0.00000000e+00    
           4.88838588e-04     3.06001348e-05     0.00000000e+00    
           4.94114356e-04     2.39966539e-05     0.00000000e+00    
           5.01029659e-04     1.87770311e-05     0.00000000e+00    
           5.09247417e-04     1.54338668e-05     0.00000000e+00    
           5.18432818e-04     1.40601051e-05     0.00000000e+00    
           9.00783110e-04     3.07425239e-06     0.00000000e+00    
           9.04219167e-04     9.83116206e-06     0.00000000e+00    
           9.05750610e-04     1.77615402e-05     0.00000000e+00    
           9.04418644e-04     2.64581322e-05     0.00000000e+00    
           8.99715873e-04     3.57775061e-05     0.00000000e+00    
           8.92287469e-04     4.41413104e-05     0.00000000e+00    
           8.82785651e-04     5.06585566e-05     0.00000000e+00    
           8.72146862e-04     5.54406506e-05     0.00000000e+00    
           8.61344568e-04     5.82077664e-05     0.00000000e+00    
           8.43412767e-04     5.67281968e-05     0.00000000e+00    
           8.35861254e-04     5.27091324e-05     0.00000000e+00    
           8.29347700e-04     4.73837754e-05     0.00000000e+00    
           8.24775489e-04     4.10972025e-05     0.00000000e+00    
           8.22588685e-04     3.39809922e-05     0.00000000e+00    
           8.23003938e-04     2.62911744e-05     0.00000000e+00    
           8.25280673e-04     1.86395846e-05     0.00000000e+00    
           8.29477853e-04     1.17702502e-05     0.00000000e+00    
           8.35186453e-04     5.01231261e-06     0.00000000e+00    
           3.51590454e-04    -5.42585622e-06     0.00000000e+00    
           3.61259008e-04    -8.14182386e-06     0.00000000e+00    
           3.71229049e-04    -8.93838933e-06     0.00000000e+00    
           3.80664394e-04    -8.02109480e-06     0.00000000e+00    
           3.88870511e-04    -5.75471176e-06     0.00000000e+00    
           4.98281443e-04    -4.65739249e-05     0.00000000e+00    
           5.07899327e-04    -4.23759338e-05     0.00000000e+00    
           5.16046421e-04    -3.66729109e-05     0.00000000e+00    
           5.21221955e-04    -3.00843203e-05     0.00000000e+00    
           5.23798575e-04    -2.34236431e-05     0.00000000e+00    
           5.23088616e-04    -1.67273356e-05     0.00000000e+00    
           5.20388829e-04    -1.08095337e-05     0.00000000e+00    
           5.16664761e-04    -4.84511065e-06     0.00000000e+00    
           5.10976999e-04     1.70910312e-06     0.00000000e+00    
           5.03216579e-04     8.51372442e-06     0.00000000e+00    
           4.93493048e-04     1.38658752e-05     0.00000000e+00    
           4.82726435e-04     1.72275231e-05     0.00000000e+00    
           4.61489399e-04     1.73494172e-05     0.00000000e+00    
           4.53081797e-04     1.45940749e-05     0.00000000e+00    
           4.46863414e-04     1.05862819e-05     0.00000000e+00    
           4.42604767e-04     4.84726024e-06     0.00000000e+00    
           4.40086296e-04    -1.92068455e-06     0.00000000e+00    
           4.39448020e-04    -9.20472758e-06     0.00000000e+00    
           4.40569536e-04    -1.69710111e-05     0.00000000e+00    
           4.44110192e-04    -2.49080240e-05     0.00000000e+00    
           4.50156076e-04    -3.26366389e-05     0.00000000e+00    
           4.58088442e-04    -3.93566952e-05     0.00000000e+00    
           4.67465929e-04    -4.42898490e-05     0.00000000e+00    
           4.77631751e-04    -4.73051005e-05     0.00000000e+00    
           7.83692347e-04     2.36434716e-05     0.00000000e+00    
           7.85341370e-04     2.50967933e-05     0.00000000e+00    
           7.86486256e-04     2.68499280e-05     0.00000000e+00    
           7.86762452e-04     2.88201809e-05     0.00000000e+00    
           7.85605982e-04     3.09008647e-05     0.00000000e+00    
           7.83165800e-04     3.30089315e-05     0.00000000e+00    
           7.79414142e-04     3.48356516e-05     0.00000000e+00    
           7.74985761e-04     3.62031096e-05     0.00000000e+00    
           7.70171930e-04     3.73267139e-05     0.00000000e+00    
           7.65908975e-04     3.82259386e-05     0.00000000e+00    
           7.60322611e-04     3.89032903e-05     0.00000000e+00    
           7.58773938e-04     3.83095321e-05     0.00000000e+00    
           7.57781265e-04     3.73519943e-05     0.00000000e+00    
           7.57280446e-04     3.61529455e-05     0.00000000e+00    
           7.57725968e-04     3.44368163e-05     0.00000000e+00    
           7.58957234e-04     3.18834609e-05     0.00000000e+00    
           7.62018550e-04     2.86563845e-05     0.00000000e+00    
           7.67058053e-04     2.58877899e-05     0.00000000e+00    
           7.72188825e-04     2.41957569e-05     0.00000000e+00    
           7.77302019e-04     2.33119426e-05     0.00000000e+00    
           4.04715247e-04    -1.87655969e-05     0.00000000e+00    
           4.11018002e-04    -1.68744627e-05     0.00000000e+00    
           4.15321876e-04    -1.35563005e-05     0.00000000e+00    
           4.17815289e-04    -9.03220280e-06     0.00000000e+00    
           4.19414107e-04    -3.14695080e-06     0.00000000e+00    
           4.19270218e-04     2.78364337e-06     0.00000000e+00    
           4.16388095e-04     8.34770890e-06     0.00000000e+00    
           4.11068933e-04     1.38043715e-05     0.00000000e+00    
           4.03990853e-04     1.76892463e-05     0.00000000e+00    
           3.96104675e-04     2.03551244e-05     0.00000000e+00    
           3.87082691e-04     2.25485674e-05     0.00000000e+00    
           3.69954883e-04     2.24787091e-05     0.00000000e+00    
           3.63604689e-04     2.00682734e-05     0.00000000e+00    
           3.59143480e-04     1.64754092e-05     0.00000000e+00    
           3.56717152e-04     1.18795178e-05     0.00000000e+00    
           3.56055476e-04     6.40431381e-06     0.00000000e+00    
           3.57214914e-04     5.11713949e-07     0.00000000e+00    
           3.60428065e-04    -5.12843690e-06     0.00000000e+00    
           3.65486980e-04    -1.02291897e-05     0.00000000e+00    
           3.72185314e-04    -1.42201725e-05     0.00000000e+00    
           3.79781413e-04    -1.73059198e-05     0.00000000e+00    
           3.88138171e-04    -1.90649953e-05     0.00000000e+00    
           8.72144374e-05     3.59027399e-05     0.00000000e+00    
           8.41342990e-05     2.92054538e-05     0.00000000e+00    
           8.28426564e-05     2.15800137e-05     0.00000000e+00    
           8.35281244e-05     1.33728126e-05     0.00000000e+00    
           8.67269191e-05     4.79658866e-06     0.00000000e+00    
           9.31143586e-05    -4.23323127e-06     0.00000000e+00    
           1.02437829e-04    -1.22210604e-05     0.00000000e+00    
           1.13605820e-04    -1.81720807e-05     0.00000000e+00    
           1.25461491e-04    -2.21276332e-05     0.00000000e+00    
           1.46497216e-04    -2.22078997e-05     0.00000000e+00    
           1.54037887e-04    -1.91233685e-05     0.00000000e+00    
           1.60078038e-04    -1.42947210e-05     0.00000000e+00    
           1.65042948e-04    -7.66243829e-06     0.00000000e+00    
           1.68286308e-04     6.23833330e-07     0.00000000e+00    
           1.68989674e-04     1.00221605e-05     0.00000000e+00    
           1.66637343e-04     1.96815799e-05     0.00000000e+00    
           1.61469172e-04     2.89871896e-05     0.00000000e+00    
           1.53757312e-04     3.69425688e-05     0.00000000e+00    
           6.32967683e-04     4.73111068e-05     0.00000000e+00    
           6.20657811e-04     4.86743484e-05     0.00000000e+00    
           6.09002949e-04     4.84317025e-05     0.00000000e+00    
           5.99218241e-04     4.55064983e-05     0.00000000e+00    
           3.01257998e-04    -2.06111708e-05     0.00000000e+00    
           3.08022485e-04    -1.77797610e-05     0.00000000e+00    
           3.12051852e-04    -1.34607108e-05     0.00000000e+00    
           3.14140518e-04    -8.07197102e-06     0.00000000e+00    
           3.14821955e-04    -2.18405671e-06     0.00000000e+00    
           3.13754077e-04     3.98692373e-06     0.00000000e+00    
           3.10878997e-04     1.03947978e-05     0.00000000e+00    
           3.05878435e-04     1.74071156e-05     0.00000000e+00    
           2.98680767e-04     2.42131937e-05     0.00000000e+00    
           2.90593307e-04     2.94460824e-05     0.00000000e+00    
           2.82346096e-04     3.28904025e-05     0.00000000e+00    
           2.66672258e-04     3.34801589e-05     0.00000000e+00    
           2.59570137e-04     3.10768191e-05     0.00000000e+00    
           2.53603532e-04     2.70074561e-05     0.00000000e+00    
           2.49190372e-04     2.12598061e-05     0.00000000e+00    
           2.46655894e-04     1.41387409e-05     0.00000000e+00    
           2.46634852e-04     6.15410545e-06     0.00000000e+00    
           2.49365316e-04    -2.01996363e-06     0.00000000e+00    
           2.54477374e-04    -9.09586015e-06     0.00000000e+00    
           2.61818845e-04    -1.48212221e-05     0.00000000e+00    