<?xml version="1.0"?>
<VTKFile type="UnstructuredGrid" version="0.1">
  <UnstructuredGrid>
    <Piece NumberOfPoints="1034" NumberOfCells="1614">
      <Points>
        <DataArray type="Float32" NumberOfComponents="3">
           5.21582007e-01     5.11657000e-01     0.00000000e+00    
           5.07319987e-01     5.11657000e-01     0.00000000e+00    
           4.65243995e-01     5.17907977e-01     0.00000000e+00    
           4.65243995e-01     5.04921973e-01     0.00000000e+00    
           4.75246996e-01     5.11415005e-01     0.00000000e+00    
           5.33852994e-01     5.04921973e-01     0.00000000e+00    
           5.33852994e-01     5.17907977e-01     0.00000000e+00    
           4.83779997e-01     5.34618974e-01     0.00000000e+00    
           4.68984991e-01     5.34618974e-01     0.00000000e+00    
           4.76381987e-01     5.23841977e-01     0.00000000e+00    
           4.68984991e-01     4.66010004e-01     0.00000000e+00    
           4.83779997e-01     4.66010004e-01     0.00000000e+00    
           4.99920011e-01     5.34618974e-01     0.00000000e+00    
           4.89203990e-01     5.34618974e-01     0.00000000e+00    
           4.94562000e-01     5.22280991e-01     0.00000000e+00    
           4.89203990e-01     4.66010004e-01     0.00000000e+00    
           4.99920011e-01     4.66010004e-01     0.00000000e+00    
           5.32517016e-01     4.74112004e-01     0.00000000e+00    
           5.17961025e-01     4.74112004e-01     0.00000000e+00    
           5.33852994e-01     5.19801974e-01     0.00000000e+00    
           5.33852994e-01     5.29603004e-01     0.00000000e+00    
           5.19536972e-01     5.24702013e-01     0.00000000e+00    
           4.65243995e-01     5.29603004e-01     0.00000000e+00    
           4.65243995e-01     5.19801974e-01     0.00000000e+00    
           4.92487997e-01     5.17117977e-01     0.00000000e+00    
           4.76904988e-01     5.17117977e-01     0.00000000e+00    
           5.17996013e-01     5.27033985e-01     0.00000000e+00    
           5.04473984e-01     5.27033985e-01     0.00000000e+00    
           5.08446991e-01     4.83435005e-01     0.00000000e+00    
           4.94414002e-01     4.83435005e-01     0.00000000e+00    
           4.65243995e-01     4.83101994e-01     0.00000000e+00    
           4.65243995e-01     4.74415004e-01     0.00000000e+00    
           4.78336990e-01     4.78758007e-01     0.00000000e+00    
           5.33852994e-01     4.74415004e-01     0.00000000e+00    
           5.33852994e-01     4.83101994e-01     0.00000000e+00    
           4.80668008e-01     4.95810986e-01     0.00000000e+00    
           4.66084987e-01     4.95810986e-01     0.00000000e+00    
           4.93930012e-01     4.79214013e-01     0.00000000e+00    
           4.78967011e-01     4.79214013e-01     0.00000000e+00    
           5.09284973e-01     4.97658014e-01     0.00000000e+00    
           4.95503992e-01     4.97658014e-01     0.00000000e+00    
           5.33011973e-01     5.01751006e-01     0.00000000e+00    
           5.17829001e-01     5.01751006e-01     0.00000000e+00    
           4.95451003e-01     5.00564992e-01     0.00000000e+00    
           4.80922014e-01     5.00564992e-01     0.00000000e+00    
           5.25367022e-01     4.88312006e-01     0.00000000e+00    
           5.09521008e-01     4.88312006e-01     0.00000000e+00    
           4.65243995e-01     5.34618974e-01     0.00000000e+00    
           4.65243995e-01     4.66010004e-01     0.00000000e+00    
           5.33852994e-01     4.66010004e-01     0.00000000e+00    
           5.33852994e-01     5.34618974e-01     0.00000000e+00    
           5.21338999e-01     5.13502657e-01     0.00000000e+00    
           5.20626605e-01     5.15222490e-01     0.00000000e+00    
           5.19493401e-01     5.16699374e-01     0.00000000e+00    
           5.18016517e-01     5.17832637e-01     0.00000000e+00    
           5.16296625e-01     5.18545032e-01     0.00000000e+00    
           5.14451027e-01     5.18787980e-01     0.00000000e+00    
           5.12605369e-01     5.18545032e-01     0.00000000e+00    
           5.10885477e-01     5.17832637e-01     0.00000000e+00    
           5.09408593e-01     5.16699374e-01     0.00000000e+00    
           5.08275390e-01     5.15222490e-01     0.00000000e+00    
           5.07562995e-01     5.13502657e-01     0.00000000e+00    
           5.07562995e-01     5.09811342e-01     0.00000000e+00    
           5.08275390e-01     5.08091509e-01     0.00000000e+00    
           5.09408593e-01     5.06614625e-01     0.00000000e+00    
           5.10885477e-01     5.05481362e-01     0.00000000e+00    
           5.12605369e-01     5.04768968e-01     0.00000000e+00    
           5.14451027e-01     5.04526019e-01     0.00000000e+00    
           5.16296625e-01     5.04768968e-01     0.00000000e+00    
           5.18016517e-01     5.05481362e-01     0.00000000e+00    
           5.19493401e-01     5.06614625e-01     0.00000000e+00    
           5.20626605e-01     5.08091509e-01     0.00000000e+00    
           5.21338999e-01     5.09811342e-01     0.00000000e+00    
           4.66931671e-01     5.04409373e-01     0.00000000e+00    
           4.68693614e-01     5.04328012e-01     0.00000000e+00    
           4.70421344e-01     5.04682958e-01     0.00000000e+00    
           4.72008497e-01     5.05452335e-01     0.00000000e+00    
           4.73357379e-01     5.06588817e-01     0.00000000e+00    
           4.74384934e-01     5.08022368e-01     0.00000000e+00    
           4.75027919e-01     5.09664834e-01     0.00000000e+00    
           4.75028187e-01     5.13165236e-01     0.00000000e+00    
           4.74385172e-01     5.14807761e-01     0.00000000e+00    
           4.73357558e-01     5.16241372e-01     0.00000000e+00    
           4.72008646e-01     5.17377913e-01     0.00000000e+00    
           4.70421433e-01     5.18147290e-01     0.00000000e+00    
           4.68693614e-01     5.18502235e-01     0.00000000e+00    
           4.66931641e-01     5.18420875e-01     0.00000000e+00    
           5.32303810e-01     5.16964078e-01     0.00000000e+00    
           5.31043947e-01     5.15658796e-01     0.00000000e+00    
           5.30155540e-01     5.14077127e-01     0.00000000e+00    
           5.29696345e-01     5.12322068e-01     0.00000000e+00    
           5.29696345e-01     5.10507941e-01     0.00000000e+00    
           5.30155540e-01     5.08752882e-01     0.00000000e+00    
           5.31043947e-01     5.07171214e-01     0.00000000e+00    
           5.32303810e-01     5.05865932e-01     0.00000000e+00    
           4.68517244e-01     5.32760799e-01     0.00000000e+00    
           4.68509018e-01     5.30844629e-01     0.00000000e+00    
           4.68960851e-01     5.28982460e-01     0.00000000e+00    
           4.69846308e-01     5.27283132e-01     0.00000000e+00    
           4.71113682e-01     5.25845945e-01     0.00000000e+00    
           4.72688884e-01     5.24754822e-01     0.00000000e+00    
           4.74479854e-01     5.24073541e-01     0.00000000e+00    
           4.78284091e-01     5.24073601e-01     0.00000000e+00    
           4.80075032e-01     5.24754822e-01     0.00000000e+00    
           4.81650203e-01     5.25845885e-01     0.00000000e+00    
           4.82917547e-01     5.27283013e-01     0.00000000e+00    
           4.83803004e-01     5.28982282e-01     0.00000000e+00    
           4.84254897e-01     5.30844331e-01     0.00000000e+00    
           4.84246761e-01     5.32760441e-01     0.00000000e+00    
           4.82887864e-01     4.67691004e-01     0.00000000e+00    
           4.81620818e-01     4.69110936e-01     0.00000000e+00    
           4.80051905e-01     4.70188022e-01     0.00000000e+00    
           4.78271484e-01     4.70860153e-01     0.00000000e+00    
           4.76382166e-01     4.71088618e-01     0.00000000e+00    
           4.74492878e-01     4.70860243e-01     0.00000000e+00    
           4.72712427e-01     4.70188200e-01     0.00000000e+00    
           4.71143454e-01     4.69111174e-01     0.00000000e+00    
           4.69876349e-01     4.67691302e-01     0.00000000e+00    
           4.88103986e-01     5.33086061e-01     0.00000000e+00    
           4.87431526e-01     5.31323195e-01     0.00000000e+00    
           4.87231195e-01     5.29447019e-01     0.00000000e+00    
           4.87516224e-01     5.27581930e-01     0.00000000e+00    
           4.88267750e-01     5.25851250e-01     0.00000000e+00    
           4.89436030e-01     5.24369657e-01     0.00000000e+00    
           4.90943670e-01     5.23235261e-01     0.00000000e+00    
           4.92690891e-01     5.22523046e-01     0.00000000e+00    
           4.96432930e-01     5.22523701e-01     0.00000000e+00    
           4.98180002e-01     5.23235798e-01     0.00000000e+00    
           4.99687493e-01     5.24370134e-01     0.00000000e+00    
           5.00855684e-01     5.25851607e-01     0.00000000e+00    
           5.01607120e-01     5.27582109e-01     0.00000000e+00    
           5.01892149e-01     5.29447079e-01     0.00000000e+00    
           5.01691818e-01     5.31323016e-01     0.00000000e+00    
           5.01019418e-01     5.33085763e-01     0.00000000e+00    
           4.98371124e-01     4.67269689e-01     0.00000000e+00    
           4.96539861e-01     4.68064904e-01     0.00000000e+00    
           4.94562000e-01     4.68336672e-01     0.00000000e+00    
           4.92584139e-01     4.68064904e-01     0.00000000e+00    
           4.90752876e-01     4.67269689e-01     0.00000000e+00    
           5.32269001e-01     4.75995690e-01     0.00000000e+00    
           5.31541944e-01     4.77750987e-01     0.00000000e+00    
           5.30385315e-01     4.79258329e-01     0.00000000e+00    
           5.28877974e-01     4.80414927e-01     0.00000000e+00    
[...]
      <PointData>
        <DataArray type="Float32" Name="Displacement" NumberOfComponents="3">
           3.13038076e-03     1.06820502e-04     0.00000000e+00    
           3.10877594e-03     2.08344398e-04     0.00000000e+00    
           1.51968258e-03     1.92557854e-05     0.00000000e+00    
           1.31482608e-03     2.16443477e-05     0.00000000e+00    
           1.43567973e-03    -1.26226747e-04     0.00000000e+00    
           3.41482600e-03     2.16443477e-05     0.00000000e+00    
           3.61968251e-03     1.92557854e-05     0.00000000e+00    
           2.26745312e-03    -2.60641391e-04     0.00000000e+00    
           2.24181917e-03     3.56257879e-05     0.00000000e+00    
           2.02820729e-03    -1.13888578e-04     0.00000000e+00    
           1.41819066e-04     3.56257879e-05     0.00000000e+00    
           1.67453050e-04    -2.60641391e-04     0.00000000e+00    
           2.63216137e-03    -3.61715240e-04     0.00000000e+00    
           2.61590467e-03    -2.61994137e-04     0.00000000e+00    
           2.49408255e-03    -3.18956620e-04     0.00000000e+00    
           5.15904569e-04    -2.61994137e-04     0.00000000e+00    
           5.32161270e-04    -3.61715240e-04     0.00000000e+00    
           2.13353662e-03     2.40935924e-06     0.00000000e+00    
           2.11045938e-03     2.29558675e-04     0.00000000e+00    
           3.62090999e-03    -1.05392928e-05     0.00000000e+00    
           3.80551489e-03    -1.38334299e-05     0.00000000e+00    
           3.68926628e-03     2.39480869e-04     0.00000000e+00    
           1.70551497e-03    -1.38334299e-05     0.00000000e+00    
           1.52091007e-03    -1.05392928e-05     0.00000000e+00    
           1.94024143e-03    -3.82539904e-04     0.00000000e+00    
           1.91528013e-03    -8.73951212e-05     0.00000000e+00    
           3.37265152e-03     9.70600740e-05     0.00000000e+00    
           3.35104903e-03     2.91042728e-04     0.00000000e+00    
           1.59272586e-03    -2.40944690e-04     0.00000000e+00    
           1.57319789e-03    -3.23907370e-05     0.00000000e+00    
           5.70522272e-04     1.43085155e-04     0.00000000e+00    
           3.31751449e-04     1.39361102e-04     0.00000000e+00    
           4.73455671e-04    -2.07660210e-04     0.00000000e+00    
           2.43175146e-03     1.39361102e-04     0.00000000e+00    
           2.67052231e-03     1.43085155e-04     0.00000000e+00    
           1.10584125e-03    -2.61619629e-04     0.00000000e+00    
           1.08270149e-03     9.67415253e-05     0.00000000e+00    
           7.86906981e-04    -4.44125413e-04     0.00000000e+00    
           7.63655349e-04    -8.11141508e-05     0.00000000e+00    
           1.92485750e-03    -1.76414687e-04     0.00000000e+00    
           1.90597773e-03    -3.82997678e-05     0.00000000e+00    
           3.07705789e-03    -1.54314093e-05     0.00000000e+00    
           3.05654528e-03     1.71709908e-04     0.00000000e+00    
           1.57012942e-03    -4.30775166e-04     0.00000000e+00    
           1.54716300e-03    -1.65723090e-04     0.00000000e+00    
           2.31058965e-03     1.17877949e-04     0.00000000e+00    
           2.28648633e-03     3.04293964e-04     0.00000000e+00    
           2.09999993e-03     0.00000000e+00     0.00000000e+00    
           0.00000000e+00     0.00000000e+00     0.00000000e+00    
           2.09999993e-03     0.00000000e+00     0.00000000e+00    
           4.19999985e-03     0.00000000e+00     0.00000000e+00    
           3.14573804e-03     1.08971246e-04     0.00000000e+00    
           3.15898797e-03     1.14741015e-04     0.00000000e+00    
           3.16984206e-03     1.23161095e-04     0.00000000e+00    
           3.17759602e-03     1.33371388e-04     0.00000000e+00    
           3.18182004e-03     1.44728940e-04     0.00000000e+00    
           3.18188779e-03     1.57296206e-04     0.00000000e+00    
           3.17715667e-03     1.71697320e-04     0.00000000e+00    
           3.16719129e-03     1.86013713e-04     0.00000000e+00    
           3.15328571e-03     1.97183530e-04     0.00000000e+00    
           3.13895033e-03     2.03929478e-04     0.00000000e+00    
           3.12410831e-03     2.07738107e-04     0.00000000e+00    
           3.09416815e-03     2.05365315e-04     0.00000000e+00    
           3.08122789e-03     1.99291622e-04     0.00000000e+00    
           3.07079870e-03     1.90717299e-04     0.00000000e+00    
           3.06330388e-03     1.80540737e-04     0.00000000e+00    
           3.05950432e-03     1.68735074e-04     0.00000000e+00    
           3.06055136e-03     1.55436937e-04     0.00000000e+00    
           3.06571298e-03     1.43075740e-04     0.00000000e+00    
           3.07443645e-03     1.33042689e-04     0.00000000e+00    
           3.08595668e-03     1.22321348e-04     0.00000000e+00    
           3.09966109e-03     1.13447721e-04     0.00000000e+00    
           3.11447284e-03     1.08028507e-04     0.00000000e+00    
           1.30888063e-03    -1.81348821e-06     0.00000000e+00    
           1.30989798e-03    -2.55360010e-05     0.00000000e+00    
           1.31794508e-03    -5.05743337e-05     0.00000000e+00    
           1.33338396e-03    -7.55752480e-05     0.00000000e+00    
           1.35486480e-03    -9.76492083e-05     0.00000000e+00    
           1.38004695e-03    -1.13855967e-04     0.00000000e+00    
           1.40755088e-03    -1.23489139e-04     0.00000000e+00    
           1.46289892e-03    -1.22244135e-04     0.00000000e+00    
           1.48763706e-03    -1.11887333e-04     0.00000000e+00    
           1.50848285e-03    -9.58950695e-05     0.00000000e+00    
           1.52424269e-03    -7.51996486e-05     0.00000000e+00    
           1.53378840e-03    -5.11563558e-05     0.00000000e+00    
           1.53609132e-03    -2.54856968e-05     0.00000000e+00    
           1.53092365e-03    -1.76958315e-06     0.00000000e+00    
           3.60340229e-03     4.12133595e-05     0.00000000e+00    
           3.58153577e-03     6.02095570e-05     0.00000000e+00    
           3.55508435e-03     7.46008882e-05     0.00000000e+00    
           3.52639798e-03     8.19422203e-05     0.00000000e+00    
           3.49739357e-03     8.20703062e-05     0.00000000e+00    
           3.47036961e-03     7.49778046e-05     0.00000000e+00    
           3.44686024e-03     6.15318568e-05     0.00000000e+00    
           3.42813344e-03     4.32292654e-05     0.00000000e+00    
           2.20204145e-03     4.39061150e-05     0.00000000e+00    
           2.16219923e-03     4.31635781e-05     0.00000000e+00    
           2.12386111e-03     3.35908153e-05     0.00000000e+00    
           2.08958145e-03     1.53817109e-05     0.00000000e+00    
           2.06142361e-03    -1.04771807e-05     0.00000000e+00    
           2.04115524e-03    -4.23458841e-05     0.00000000e+00    
           2.03006319e-03    -7.79253387e-05     0.00000000e+00    
           2.03591422e-03    -1.48403691e-04     0.00000000e+00    
           2.05179048e-03    -1.81574535e-04     0.00000000e+00    
           2.07664166e-03    -2.13673877e-04     0.00000000e+00    
           2.10921909e-03    -2.41314163e-04     0.00000000e+00    
           2.14753137e-03    -2.61297828e-04     0.00000000e+00    
           2.18814262e-03    -2.71558762e-04     0.00000000e+00    
           2.22898787e-03    -2.71055964e-04     0.00000000e+00    
           2.01265313e-04    -2.41497371e-04     0.00000000e+00    
           2.28899255e-04    -2.15222521e-04     0.00000000e+00    
           2.48898781e-04    -1.83809010e-04     0.00000000e+00    
           2.60333356e-04    -1.49472151e-04     0.00000000e+00    
           2.62104586e-04    -1.14139395e-04     0.00000000e+00    
           2.54377315e-04    -7.91301936e-05     0.00000000e+00    
           2.37604298e-04    -4.21771001e-05     0.00000000e+00    
           2.11931780e-04    -8.61143417e-06     0.00000000e+00    
           1.78895687e-04     1.80168772e-05     0.00000000e+00    
           2.59802677e-03    -2.50717188e-04     0.00000000e+00    
           2.57829763e-03    -2.44112030e-04     0.00000000e+00    
           2.55817571e-03    -2.42703434e-04     0.00000000e+00    
           2.53892853e-03    -2.46670126e-04     0.00000000e+00    
           2.52205017e-03    -2.55439896e-04     0.00000000e+00    
           2.50849384e-03    -2.67967233e-04     0.00000000e+00    
           2.49879179e-03    -2.83291214e-04     0.00000000e+00    
           2.49346206e-03    -3.00508109e-04     0.00000000e+00    
           2.50076572e-03    -3.37255886e-04     0.00000000e+00    
           2.51206360e-03    -3.52271309e-04     0.00000000e+00    
           2.52629002e-03    -3.64082342e-04     0.00000000e+00    
           2.54274462e-03    -3.74050433e-04     0.00000000e+00    
           2.56123254e-03    -3.80660174e-04     0.00000000e+00    
           2.58077332e-03    -3.82748549e-04     0.00000000e+00    
           2.59983656e-03    -3.80211830e-04     0.00000000e+00    
           2.61747651e-03    -3.72985960e-04     0.00000000e+00    
           5.43517526e-04    -3.46569053e-04     0.00000000e+00    
           5.49933349e-04    -3.29307397e-04     0.00000000e+00    
           5.50869736e-04    -3.11317970e-04     0.00000000e+00    
           5.44646522e-04    -2.93064339e-04     0.00000000e+00    
           5.32327918e-04    -2.76610168e-04     0.00000000e+00    
           2.16445047e-03     7.27593579e-06     0.00000000e+00    
           2.19233567e-03     1.96837063e-05     0.00000000e+00    
           2.21552327e-03     3.80603597e-05     0.00000000e+00    
           2.23230990e-03     6.25459215e-05     0.00000000e+00    
           2.24100449e-03     9.04005356e-05     0.00000000e+00    
           2.24164873e-03     1.19318538e-04     0.00000000e+00    
           2.23397720e-03     1.45842234e-04     0.00000000e+00    
           2.22027907e-03     1.71846157e-04     0.00000000e+00    
           2.20012036e-03     1.94792767e-04     0.00000000e+00    
           2.17334414e-03     2.13540610e-04     0.00000000e+00    
           2.14256858e-03     2.25604876e-04     0.00000000e+00    
           2.07925984e-03     2.25611322e-04     0.00000000e+00    
           2.05084844e-03     2.14158979e-04     0.00000000e+00    
           2.02704826e-03     1.96465364e-04     0.00000000e+00    
           2.00917665e-03     1.73621898e-04     0.00000000e+00    
           1.99871324e-03     1.47230108e-04     0.00000000e+00    
           1.99606456e-03     1.18327909e-04     0.00000000e+00    
           2.00261665e-03     8.74367397e-05     0.00000000e+00    
           2.01996509e-03     5.70781303e-05     0.00000000e+00    
           2.04339833e-03     3.31142219e-05     0.00000000e+00    
           2.07115221e-03     1.57868853e-05     0.00000000e+00    
           2.10172334e-03     5.36769448e-06     0.00000000e+00    
           3.83008318e-03     1.04897745e-05     0.00000000e+00    
           3.84753849e-03     3.94928793e-05     0.00000000e+00    
           3.85707384e-03     7.18604206e-05     0.00000000e+00    
           3.85580910e-03     1.07163803e-04     0.00000000e+00    
           3.84312705e-03     1.43583107e-04     0.00000000e+00    
           3.82243353e-03     1.75984329e-04     0.00000000e+00    
           3.79520818e-03     2.02530704e-04     0.00000000e+00    
           3.76265240e-03     2.23084004e-04     0.00000000e+00    
           3.72655364e-03     2.36061183e-04     0.00000000e+00    
           3.65304155e-03     2.33741986e-04     0.00000000e+00    
           3.62005434e-03     2.19387017e-04     0.00000000e+00    
           3.59222153e-03     1.97922884e-04     0.00000000e+00    
           3.57099948e-03     1.70669009e-04     0.00000000e+00    
           3.55761498e-03     1.39010590e-04     0.00000000e+00    
           3.55419214e-03     1.04687599e-04     0.00000000e+00    
           3.55950114e-03     7.14576599e-05     0.00000000e+00    
           3.57337692e-03     4.23245147e-05     0.00000000e+00    
           3.59357521e-03     1.41258133e-05     0.00000000e+00    
           1.55014335e-03    -2.82073961e-05     0.00000000e+00    
           1.58242148e-03    -3.95866264e-05     0.00000000e+00    
           1.61578786e-03    -4.35786096e-05     0.00000000e+00    
           1.64841150e-03    -4.02260230e-05     0.00000000e+00    
           1.67874875e-03    -2.99620606e-05     0.00000000e+00    
           1.97733589e-03    -3.77414312e-04     0.00000000e+00    
           2.01150519e-03    -3.63808707e-04     0.00000000e+00    
           2.04069028e-03    -3.42783052e-04     0.00000000e+00    
           2.06339476e-03    -3.15832498e-04     0.00000000e+00    
           2.07850174e-03    -2.84668524e-04     0.00000000e+00    
           2.08475487e-03    -2.50938203e-04     0.00000000e+00    
           2.08167941e-03    -2.17935783e-04     0.00000000e+00    
           2.07055197e-03    -1.86703764e-04     0.00000000e+00    
           2.05130200e-03    -1.56225506e-04     0.00000000e+00    
           2.02407013e-03    -1.28087369e-04     0.00000000e+00    
           1.99070177e-03    -1.06326050e-04     0.00000000e+00    
           1.95361231e-03    -9.22747276e-05     0.00000000e+00    
           1.87795283e-03    -9.17431971e-05     0.00000000e+00    
           1.84349460e-03    -1.04838153e-04     0.00000000e+00    
           1.81396131e-03    -1.25371196e-04     0.00000000e+00    
           1.79077755e-03    -1.52208275e-04     0.00000000e+00    
           1.77547778e-03    -1.83637894e-04     0.00000000e+00    
           1.76905608e-03    -2.17341250e-04     0.00000000e+00    
           1.77122746e-03    -2.52516154e-04     0.00000000e+00    
           1.78361440e-03    -2.87721428e-04     0.00000000e+00    
           1.80480571e-03    -3.20286752e-04     0.00000000e+00    
           1.83299289e-03    -3.47341236e-04     0.00000000e+00    
           1.86615472e-03    -3.67003697e-04     0.00000000e+00    
           1.90245884e-03    -3.78921657e-04     0.00000000e+00    
           3.40132951e-03     1.02165141e-04     0.00000000e+00    
           3.42669245e-03     1.14837232e-04     0.00000000e+00    
           3.44695337e-03     1.33767579e-04     0.00000000e+00    
           3.46061843e-03     1.57562201e-04     0.00000000e+00    
           3.46605363e-03     1.84464370e-04     0.00000000e+00    
           3.46248108e-03     2.12574087e-04     0.00000000e+00    
           3.45018436e-03     2.38184031e-04     0.00000000e+00    
           3.43186595e-03     2.59506662e-04     0.00000000e+00    
           3.40776541e-03     2.76679493e-04     0.00000000e+00    
           3.38027976e-03     2.87647854e-04     0.00000000e+00    
           3.32246604e-03     2.86462106e-04     0.00000000e+00    
           3.29684000e-03     2.74334103e-04     0.00000000e+00    
           3.27611319e-03     2.55999272e-04     0.00000000e+00    
           3.26177967e-03     2.33479775e-04     0.00000000e+00    
           3.25582596e-03     2.08135069e-04     0.00000000e+00    
           3.25795426e-03     1.81390526e-04     0.00000000e+00    
           3.26999207e-03     1.54275127e-04     0.00000000e+00    
           3.29020270e-03     1.30496410e-04     0.00000000e+00    
           3.31485970e-03     1.12139569e-04     0.00000000e+00    
           3.34301777e-03     1.00381971e-04     0.00000000e+00    
           1.62148767e-03    -2.36705688e-04     0.00000000e+00    
           1.64773699e-03    -2.25947573e-04     0.00000000e+00    
           1.67006999e-03    -2.08652680e-04     0.00000000e+00    
           1.68631889e-03    -1.86111734e-04     0.00000000e+00    
           1.69570674e-03    -1.60293886e-04     0.00000000e+00    
           1.69774832e-03    -1.32955611e-04     0.00000000e+00    
           1.69149565e-03    -1.05431980e-04     0.00000000e+00    
           1.67619018e-03    -7.93472427e-05     0.00000000e+00    
           1.65524683e-03    -6.07300317e-05     0.00000000e+00    
           1.63067121e-03    -4.57584138e-05     0.00000000e+00    
           1.60268834e-03    -3.54552612e-05     0.00000000e+00    
           1.54428778e-03    -3.67494831e-05     0.00000000e+00    
           1.51802739e-03    -4.82479154e-05     0.00000000e+00    
           1.49609230e-03    -6.60459918e-05     0.00000000e+00    
           1.48000196e-03    -8.86822891e-05     0.00000000e+00    
           1.47077709e-03    -1.14467766e-04     0.00000000e+00    
           1.46939827e-03    -1.41964585e-04     0.00000000e+00    
           1.47643639e-03    -1.69166597e-04     0.00000000e+00    
           1.49123778e-03    -1.93242813e-04     0.00000000e+00    
           1.51164643e-03    -2.12102357e-04     0.00000000e+00    
           1.53576769e-03    -2.27844648e-04     0.00000000e+00    
           1.56346464e-03    -2.37635511e-04     0.00000000e+00    
           2.98050494e-04     1.05645275e-04     0.00000000e+00    
           2.74505932e-04     6.52595190e-05     0.00000000e+00    
           2.62623100e-04     2.08274032e-05     0.00000000e+00    
           2.62778020e-04    -2.47606531e-05     0.00000000e+00    
           2.74357182e-04    -6.96607531e-05     0.00000000e+00    
           2.98073574e-04    -1.13247996e-04     0.00000000e+00    
           3.32672731e-04    -1.51790548e-04     0.00000000e+00    
           3.75265809e-04    -1.82184682e-04     0.00000000e+00    
           4.23248421e-04    -2.01291186e-04     0.00000000e+00    
           5.22772665e-04    -2.01644114e-04     0.00000000e+00    
           5.68186748e-04    -1.84046177e-04     0.00000000e+00    
           6.07255206e-04    -1.56084279e-04     0.00000000e+00    
           6.37820922e-04    -1.19426732e-04     0.00000000e+00    
           6.57362223e-04    -7.55744113e-05     0.00000000e+00    
           6.64513209e-04    -2.72287871e-05     0.00000000e+00    
           6.58241159e-04     2.22294893e-05     0.00000000e+00    
           6.39259990e-04     6.90911329e-05     0.00000000e+00    
           6.09083567e-04     1.10073095e-04     0.00000000e+00    
           2.62431568e-03     1.66845406e-04     0.00000000e+00    
           2.57408223e-03     1.78568822e-04     0.00000000e+00    
           2.52301432e-03     1.77897353e-04     0.00000000e+00    
           2.47451011e-03     1.64340468e-04     0.00000000e+00    
           1.15430215e-03    -2.55222141e-04     0.00000000e+00    
           1.19832624e-03    -2.36701744e-04     0.00000000e+00    
           1.23517576e-03    -2.07569421e-04     0.00000000e+00    
           1.26225094e-03    -1.70273212e-04     0.00000000e+00    
           1.27793394e-03    -1.27922656e-04     0.00000000e+00    
           1.28151686e-03    -8.36115287e-05     0.00000000e+00    
           1.27260142e-03    -3.95584793e-05     0.00000000e+00    
           1.25077530e-03     3.59414116e-06     0.00000000e+00    
           1.21753465e-03     4.25994731e-05     0.00000000e+00    
           1.17668463e-03     7.24737401e-05     0.00000000e+00    
           1.13085576e-03     9.08320144e-05     0.00000000e+00    
           1.03551359e-03     9.02910033e-05     0.00000000e+00    
           9.91855515e-04     7.28232480e-05     0.00000000e+00    
           9.54386953e-04     4.51097912e-05     0.00000000e+00    
           9.25781613e-04     8.49159278e-06     0.00000000e+00    
           9.08357906e-04    -3.49712718e-05     0.00000000e+00    
           9.04154207e-04    -8.25566094e-05     0.00000000e+00    
           9.14024247e-04    -1.30898130e-04     0.00000000e+00    
           9.36078082e-04    -1.74120491e-04     0.00000000e+00    
           9.68789100e-04    -2.10122089e-04     0.00000000e+00    