<?xml version="1.0"?>
<VTKFile type="UnstructuredGrid" version="0.1">
  <UnstructuredGrid>
    <Piece NumberOfPoints="1034" NumberOfCells="1614">
      <Points>
        <DataArray type="Float32" NumberOfComponents="3">
           5.21582007e-01     5.11657000e-01     0.00000000e+00    
           5.07319987e-01     5.11657000e-01     0.00000000e+00    
           4.65243995e-01     5.17907977e-01     0.00000000e+00    
           4.65243995e-01     5.04921973e-01     0.00000000e+00    
           4.75246996e-01     5.11415005e-01     0.00000000e+00    
           5.33852994e-01     5.04921973e-01     0.00000000e+00    
           5.33852994e-01     5.17907977e-01     0.00000000e+00    
           4.83779997e-01     5.34618974e-01     0.00000000e+00    
           4.68984991e-01     5.34618974e-01     0.00000000e+00    
           4.76381987e-01     5.23841977e-01     0.00000000e+00    
           4.68984991e-01     4.66010004e-01     0.00000000e+00    
           4.83779997e-01     4.66010004e-01     0.00000000e+00    
           4.99920011e-01     5.34618974e-01     0.00000000e+00    
           4.89203990e-01     5.34618974e-01     0.00000000e+00    
           4.94562000e-01     5.22280991e-01     0.00000000e+00    
           4.89203990e-01     4.66010004e-01     0.00000000e+00    
           4.99920011e-01     4.66010004e-01     0.00000000e+00    
           5.32517016e-01     4.74112004e-01     0.00000000e+00    
           5.17961025e-01     4.74112004e-01     0.00000000e+00    
           5.33852994e-01     5.19801974e-01     0.00000000e+00    
           5.33852994e-01     5.29603004e-01     0.00000000e+00    
           5.19536972e-01     5.24702013e-01     0.00000000e+00    
           4.65243995e-01     5.29603004e-01     0.00000000e+00    
           4.65243995e-01     5.19801974e-01     0.00000000e+00    
           4.92487997e-01     5.17117977e-01     0.00000000e+00    
           4.76904988e-01     5.17117977e-01     0.00000000e+00    
           5.17996013e-01     5.27033985e-01     0.00000000e+00    
           5.04473984e-01     5.27033985e-01     0.00000000e+00    
           5.08446991e-01     4.83435005e-01     0.00000000e+00    
           4.94414002e-01     4.83435005e-01     0.00000000e+00    
           4.65243995e-01     4.83101994e-01     0.00000000e+00    
           4.65243995e-01     4.74415004e-01     0.00000000e+00    
           4.78336990e-01     4.78758007e-01     0.00000000e+00    
           5.33852994e-01     4.74415004e-01     0.00000000e+00    
           5.33852994e-01     4.83101994e-01     0.00000000e+00    
           4.80668008e-01     4.95810986e-01     0.00000000e+00    
           4.66084987e-01     4.95810986e-01     0.00000000e+00    
           4.93930012e-01     4.79214013e-01     0.00000000e+00    
           4.78967011e-01     4.79214013e-01     0.00000000e+00    
           5.09284973e-01     4.97658014e-01     0.00000000e+00    
           4.95503992e-01     4.97658014e-01     0.00000000e+00    
           5.33011973e-01     5.01751006e-01     0.00000000e+00    
           5.17829001e-01     5.01751006e-01     0.00000000e+00    
           4.95451003e-01     5.00564992e-01     0.00000000e+00    
           4.80922014e-01     5.00564992e-01     0.00000000e+00    
           5.25367022e-01     4.88312006e-01     0.00000000e+00    
           5.09521008e-01     4.88312006e-01     0.00000000e+00    
           4.65243995e-01     5.34618974e-01     0.00000000e+00    
           4.65243995e-01     4.66010004e-01     0.00000000e+00    
           5.33852994e-01     4.66010004e-01     0.00000000e+00    
           5.33852994e-01     5.34618974e-01     0.00000000e+00    
           5.21338999e-01     5.13502657e-01     0.00000000e+00    
           5.20626605e-01     5.15222490e-01     0.00000000e+00    
           5.19493401e-01     5.16699374e-01     0.00000000e+00    
           5.18016517e-01     5.17832637e-01     0.00000000e+00    
           5.16296625e-01     5.18545032e-01     0.00000000e+00    
           5.14451027e-01     5.18787980e-01     0.00000000e+00    
           5.12605369e-01     5.18545032e-01     0.00000000e+00    
           5.10885477e-01     5.17832637e-01     0.00000000e+00    
           5.09408593e-01     5.16699374e-01     0.00000000e+00    
           5.08275390e-01     5.15222490e-01     0.00000000e+00    
           5.07562995e-01     5.13502657e-01     0.00000000e+00    
           5.07562995e-01     5.09811342e-01     0.00000000e+00    
           5.08275390e-01     5.08091509e-01     0.00000000e+00    
           5.09408593e-01     5.06614625e-01     0.00000000e+00    
           5.10885477e-01     5.05481362e-01     0.00000000e+00    
           5.12605369e-01     5.04768968e-01     0.00000000e+00    
           5.14451027e-01     5.04526019e-01     0.00000000e+00    
           5.16296625e-01     5.04768968e-01     0.00000000e+00    
           5.18016517e-01     5.05481362e-01     0.00000000e+00    
           5.19493401e-01     5.06614625e-01     0.00000000e+00    
           5.20626605e-01     5.08091509e-01     0.00000000e+00    
           5.21338999e-01     5.09811342e-01     0.00000000e+00    
           4.66931671e-01     5.04409373e-01     0.00000000e+00    
           4.68693614e-01     5.04328012e-01     0.00000000e+00    
           4.70421344e-01     5.04682958e-01     0.00000000e+00    
           4.72008497e-01     5.05452335e-01     0.00000000e+00    
           4.73357379e-01     5.06588817e-01     0.00000000e+00    
           4.74384934e-01     5.08022368e-01     0.00000000e+00    
           4.75027919e-01     5.09664834e-01     0.00000000e+00    
           4.75028187e-01     5.13165236e-01     0.00000000e+00    
           4.74385172e-01     5.14807761e-01     0.00000000e+00    
           4.73357558e-01     5.16241372e-01     0.00000000e+00    
           4.72008646e-01     5.17377913e-01     0.00000000e+00    
           4.70421433e-01     5.18147290e-01     0.00000000e+00    
           4.68693614e-01     5.18502235e-01     0.00000000e+00    
           4.66931641e-01     5.18420875e-01     0.00000000e+00    
           5.32303810e-01     5.16964078e-01     0.00000000e+00    
           5.31043947e-01     5.15658796e-01     0.00000000e+00    
           5.30155540e-01     5.14077127e-01     0.00000000e+00    
           5.29696345e-01     5.12322068e-01     0.00000000e+00    
           5.29696345e-01     5.10507941e-01     0.00000000e+00    
           5.30155540e-01     5.08752882e-01     0.00000000e+00    
           5.31043947e-01     5.07171214e-01     0.00000000e+00    
           5.32303810e-01     5.05865932e-01     0.00000000e+00    
           4.68517244e-01     5.32760799e-01     0.00000000e+00    
           4.68509018e-01     5.30844629e-01     0.00000000e+00    
           4.68960851e-01     5.28982460e-01     0.00000000e+00    
           4.69846308e-01     5.27283132e-01     0.00000000e+00    
           4.71113682e-01     5.25845945e-01     0.00000000e+00    
           4.72688884e-01     5.24754822e-01     0.00000000e+00    
           4.74479854e-01     5.24073541e-01     0.00000000e+00    
           4.78284091e-01     5.24073601e-01     0.00000000e+00    
           4.80075032e-01     5.24754822e-01     0.00000000e+00    
           4.81650203e-01     5.25845885e-01     0.00000000e+00    
           4.82917547e-01     5.27283013e-01     0.00000000e+00    
           4.83803004e-01     5.28982282e-01     0.00000000e+00    
           4.84254897e-01     5.30844331e-01     0.00000000e+00    
           4.84246761e-01     5.32760441e-01     0.00000000e+00    
           4.82887864e-01     4.67691004e-01     0.00000000e+00    
           4.81620818e-01     4.69110936e-01     0.00000000e+00    
           4.80051905e-01     4.70188022e-01     0.00000000e+00    
           4.78271484e-01     4.70860153e-01     0.00000000e+00    
           4.76382166e-01     4.71088618e-01     0.00000000e+00    
           4.74492878e-01     4.70860243e-01     0.00000000e+00    
           4.72712427e-01     4.70188200e-01     0.00000000e+00    
           4.71143454e-01     4.69111174e-01     0.00000000e+00    
           4.69876349e-01     4.67691302e-01     0.00000000e+00    
           4.88103986e-01     5.33086061e-01     0.00000000e+00    
           4.87431526e-01     5.31323195e-01     0.00000000e+00    
           4.87231195e-01     5.29447019e-01     0.00000000e+00    
           4.87516224e-01     5.27581930e-01     0.00000000e+00    
           4.88267750e-01     5.25851250e-01     0.00000000e+00    
           4.89436030e-01     5.24369657e-01     0.00000000e+00    
           4.90943670e-01     5.23235261e-01     0.00000000e+00    
           4.92690891e-01     5.22523046e-01     0.00000000e+00    
           4.96432930e-01     5.22523701e-01     0.00000000e+00    
           4.98180002e-01     5.23235798e-01     0.00000000e+00    
           4.99687493e-01     5.24370134e-01     0.00000000e+00    
           5.00855684e-01     5.25851607e-01     0.00000000e+00    
           5.01607120e-01     5.27582109e-01     0.00000000e+00    
           5.01892149e-01     5.29447079e-01     0.00000000e+00    
           5.01691818e-01     5.31323016e-01     0.00000000e+00    
           5.01019418e-01     5.33085763e-01     0.00000000e+00    
           4.98371124e-01     4.67269689e-01     0.00000000e+00    
           4.96539861e-01     4.68064904e-01     0.00000000e+00    
           4.94562000e-01     4.68336672e-01     0.00000000e+00    
           4.92584139e-01     4.68064904e-01     0.00000000e+00    
           4.90752876e-01     4.67269689e-01     0.00000000e+00    
           5.32269001e-01     4.75995690e-01     0.00000000e+00    
           5.31541944e-01     4.77750987e-01     0.00000000e+00    
           5.30385315e-01     4.79258329e-01     0.00000000e+00    
           5.28877974e-01     4.80414927e-01     0.00000000e+00    
[...]
      <PointData>
        <DataArray type="Float32" Name="Displacement" NumberOfComponents="3">
           1.15051190e-03     2.43671147e-05     0.00000000e+00    
           1.13438384e-03     6.27498302e-05     0.00000000e+00    
           5.60259330e-04     1.68236747e-05     0.00000000e+00    
           4.94078908e-04     1.72558412e-05     0.00000000e+00    
           5.42578171e-04    -2.00915292e-05     0.00000000e+00    
           1.29407889e-03     1.72558412e-05     0.00000000e+00    
           1.36025937e-03     1.68236747e-05     0.00000000e+00    
           8.90807365e-04    -4.93434745e-05     0.00000000e+00    
           8.72098375e-04     4.39254909e-05     0.00000000e+00    
           8.03161820e-04    -2.24363225e-06     0.00000000e+00    
           7.20983589e-05     4.39254909e-05     0.00000000e+00    
           9.08073707e-05    -4.93434745e-05     0.00000000e+00    
           1.04242773e-03    -7.94992739e-05     0.00000000e+00    
           1.02897012e-03    -3.54828226e-05     0.00000000e+00    
           9.71142319e-04    -6.13077718e-05     0.00000000e+00    
           2.28970166e-04    -3.54828226e-05     0.00000000e+00    
           2.42427734e-04    -7.94992739e-05     0.00000000e+00    
           8.22984555e-04     1.24867838e-05     0.00000000e+00    
           8.03892734e-04     8.85603004e-05     0.00000000e+00    
           1.35441357e-03     3.95613284e-07     0.00000000e+00    
           1.42951030e-03    -2.44570833e-06     0.00000000e+00    
           1.37043500e-03     9.02524189e-05     0.00000000e+00    
           6.29510265e-04    -2.44570833e-06     0.00000000e+00    
           5.54413535e-04     3.95613284e-07     0.00000000e+00    
           7.85725191e-04    -7.59164395e-05     0.00000000e+00    
           7.64858676e-04     2.50394787e-05     0.00000000e+00    
           1.25168217e-03     3.11211734e-05     0.00000000e+00    
           1.23020960e-03     7.49429819e-05     0.00000000e+00    
           6.37993100e-04    -3.88979970e-05     0.00000000e+00    
           6.18469901e-04     4.81013049e-05     0.00000000e+00    
           2.25066033e-04     7.22468976e-05     0.00000000e+00    
           1.43505225e-04     6.99419325e-05     0.00000000e+00    
           2.04857701e-04    -3.86588326e-05     0.00000000e+00    
           9.43505205e-04     6.99419325e-05     0.00000000e+00    
           1.02506601e-03     7.22468976e-05     0.00000000e+00    
           4.51398431e-04    -4.43029312e-05     0.00000000e+00    
           4.30702436e-04     5.88888179e-05     0.00000000e+00    
           3.53462150e-04    -8.88093855e-05     0.00000000e+00    
           3.30333598e-04     2.47353400e-05     0.00000000e+00    
           7.66853162e-04    -8.05295804e-06     0.00000000e+00    
           7.49221712e-04     3.72162576e-05     0.00000000e+00    
           1.14606787e-03    -9.24150754e-06     0.00000000e+00    
           1.12730684e-03     5.82901739e-05     0.00000000e+00    
           6.51319860e-04    -7.29529856e-05     0.00000000e+00    
           6.28914277e-04    -1.01985715e-05     0.00000000e+00    
           8.62822984e-04     4.27015657e-05     0.00000000e+00    
           8.42249661e-04     9.38895100e-05     0.00000000e+00    
           7.99999980e-04     0.00000000e+00     0.00000000e+00    
           0.00000000e+00     0.00000000e+00     0.00000000e+00    
           7.99999980e-04     0.00000000e+00     0.00000000e+00    
           1.59999996e-03     0.00000000e+00     0.00000000e+00    
           1.15773443e-03     2.52780792e-05     0.00000000e+00    
           1.16411946e-03     2.79028409e-05     0.00000000e+00    
           1.16906059e-03     3.13184610e-05     0.00000000e+00    
           1.17214536e-03     3.50815681e-05     0.00000000e+00    
           1.17328274e-03     3.89368943e-05     0.00000000e+00    
           1.17242511e-03     4.30191503e-05     0.00000000e+00    
           1.16987736e-03     4.81130264e-05     0.00000000e+00    
           1.16492365e-03     5.37031847e-05     0.00000000e+00    
           1.15772453e-03     5.84970730e-05     0.00000000e+00    
           1.15004880e-03     6.14962337e-05     0.00000000e+00    
           1.14213850e-03     6.28909547e-05     0.00000000e+00    
           1.12725794e-03     6.09388408e-05     0.00000000e+00    
           1.12131459e-03     5.79883417e-05     0.00000000e+00    
           1.11703645e-03     5.42875096e-05     0.00000000e+00    
           1.11443526e-03     5.02765288e-05     0.00000000e+00    
           1.11401232e-03     4.56986090e-05     0.00000000e+00    
           1.11637847e-03     4.08969026e-05     0.00000000e+00    
           1.12053927e-03     3.69745794e-05     0.00000000e+00    
           1.12587924e-03     3.42210042e-05     0.00000000e+00    
           1.13171770e-03     3.06208494e-05     0.00000000e+00    
           1.13752857e-03     2.75474740e-05     0.00000000e+00    
           1.14340859e-03     2.50604553e-05     0.00000000e+00    
           4.94211621e-04     1.18165772e-05     0.00000000e+00    
           4.96531080e-04     6.99355815e-06     0.00000000e+00    
           5.00326161e-04     1.05178333e-06     0.00000000e+00    
           5.06360200e-04    -5.66757672e-06     0.00000000e+00    
           5.14200889e-04    -1.21479961e-05     0.00000000e+00    
           5.23266266e-04    -1.68902407e-05     0.00000000e+00    
           5.32944920e-04    -1.94909353e-05     0.00000000e+00    
           5.51327539e-04    -1.90600276e-05     0.00000000e+00    
           5.58624859e-04    -1.63235563e-05     0.00000000e+00    
           5.64169954e-04    -1.20788000e-05     0.00000000e+00    
           5.67606767e-04    -6.40869894e-06     0.00000000e+00    
           5.68980468e-04     1.06417403e-07     0.00000000e+00    
           5.68037154e-04     6.71083399e-06     0.00000000e+00    
           5.64902439e-04     1.20862169e-05     0.00000000e+00    
           1.35455607e-03     2.28229492e-05     0.00000000e+00    
           1.34718034e-03     2.84181551e-05     0.00000000e+00    
           1.33800239e-03     3.27672060e-05     0.00000000e+00    
           1.32788066e-03     3.46063680e-05     0.00000000e+00    
           1.31766766e-03     3.40814113e-05     0.00000000e+00    
           1.30873697e-03     3.15175384e-05     0.00000000e+00    
           1.30182889e-03     2.73193637e-05     0.00000000e+00    
           1.29707553e-03     2.22442432e-05     0.00000000e+00    
           8.56995233e-04     4.60590818e-05     0.00000000e+00    
           8.42434121e-04     4.54519468e-05     0.00000000e+00    
           8.28992808e-04     4.23838646e-05     0.00000000e+00    
           8.17767053e-04     3.67120228e-05     0.00000000e+00    
           8.09341727e-04     2.85692986e-05     0.00000000e+00    
           8.04169977e-04     1.85748777e-05     0.00000000e+00    
           8.02256342e-04     7.85879274e-06     0.00000000e+00    
           8.06968776e-04    -1.16411102e-05     0.00000000e+00    
           8.13220511e-04    -2.14387728e-05     0.00000000e+00    
           8.22864182e-04    -3.21064435e-05     0.00000000e+00    
           8.35551997e-04    -4.19247590e-05     0.00000000e+00    
           8.50411947e-04    -4.92732797e-05     0.00000000e+00    
           8.64885398e-04    -5.30107100e-05     0.00000000e+00    
           8.78596387e-04    -5.29339050e-05     0.00000000e+00    
           1.01588295e-04    -4.28165549e-05     0.00000000e+00    
           1.10450317e-04    -3.39716098e-05     0.00000000e+00    
           1.16632087e-04    -2.39376350e-05     0.00000000e+00    
           1.19633100e-04    -1.36661301e-05     0.00000000e+00    
           1.19134012e-04    -3.59534420e-06     0.00000000e+00    
           1.15703922e-04     6.44295324e-06     0.00000000e+00    
           1.09041830e-04     1.83494521e-05     0.00000000e+00    
           9.90273766e-05     2.95413156e-05     0.00000000e+00    
           8.61648150e-05     3.84055093e-05     0.00000000e+00    
           1.01904664e-03    -3.04586574e-05     0.00000000e+00    
           1.00858975e-03    -2.74022914e-05     0.00000000e+00    
           9.98415868e-04    -2.68264339e-05     0.00000000e+00    
           9.89093212e-04    -2.89406889e-05     0.00000000e+00    
           9.80779412e-04    -3.38939863e-05     0.00000000e+00    
           9.74680588e-04    -3.99710989e-05     0.00000000e+00    
           9.70828114e-04    -4.67820319e-05     0.00000000e+00    
           9.69158427e-04    -5.38247368e-05     0.00000000e+00    
           9.76063369e-04    -6.86467174e-05     0.00000000e+00    
           9.83106671e-04    -7.47504600e-05     0.00000000e+00    
           9.91484965e-04    -7.97332104e-05     0.00000000e+00    
           1.00050482e-03    -8.41356086e-05     0.00000000e+00    
           1.01004879e-03    -8.75713959e-05     0.00000000e+00    
           1.01970858e-03    -8.87186834e-05     0.00000000e+00    
           1.02858711e-03    -8.77390921e-05     0.00000000e+00    
           1.03623979e-03    -8.44483802e-05     0.00000000e+00    
           2.46986427e-04    -7.27995284e-05     0.00000000e+00    
           2.49219505e-04    -6.52242961e-05     0.00000000e+00    
           2.48816563e-04    -5.74228652e-05     0.00000000e+00    
           2.45002477e-04    -4.95516688e-05     0.00000000e+00    
           2.38225854e-04    -4.21450859e-05     0.00000000e+00    
           8.34764505e-04     1.46370239e-05     0.00000000e+00    
           8.44434544e-04     1.93400556e-05     0.00000000e+00    
           8.51707591e-04     2.51822494e-05     0.00000000e+00    
           8.55633290e-04     3.32701202e-05     0.00000000e+00    
           8.56610888e-04     4.20571196e-05     0.00000000e+00    
           8.55229271e-04     5.11159960e-05     0.00000000e+00    
           8.51061719e-04     5.90642630e-05     0.00000000e+00    
           8.45488568e-04     6.75065385e-05     0.00000000e+00    
           8.38091073e-04     7.53479253e-05     0.00000000e+00    
           8.27997632e-04     8.22687944e-05     0.00000000e+00    
           8.16210639e-04     8.69537980e-05     0.00000000e+00    
           7.92029314e-04     8.73209428e-05     0.00000000e+00    
           7.81305484e-04     8.34164312e-05     0.00000000e+00    
           7.72487721e-04     7.74792134e-05     0.00000000e+00    
           7.66154553e-04     6.99084048e-05     0.00000000e+00    
           7.62864598e-04     6.12260847e-05     0.00000000e+00    
           7.62588519e-04     5.14778258e-05     0.00000000e+00    
           7.66119163e-04     4.05137725e-05     0.00000000e+00    
           7.74153799e-04     2.95667924e-05     0.00000000e+00    
           7.84609700e-04     2.10034832e-05     0.00000000e+00    
           7.96757115e-04     1.54300160e-05     0.00000000e+00    
           8.09926714e-04     1.27085032e-05     0.00000000e+00    
           1.43832597e-03     5.95915617e-06     0.00000000e+00    
           1.44412089e-03     1.62126162e-05     0.00000000e+00    
           1.44680787e-03     2.80698005e-05     0.00000000e+00    
           1.44512521e-03     4.11168658e-05     0.00000000e+00    
           1.43851573e-03     5.50904224e-05     0.00000000e+00    
           1.42820913e-03     6.75783667e-05     0.00000000e+00    
           1.41512789e-03     7.74403743e-05     0.00000000e+00    
           1.40048622e-03     8.48506170e-05     0.00000000e+00    
           1.38523011e-03     8.93814358e-05     0.00000000e+00    
           1.35694584e-03     8.74577745e-05     0.00000000e+00    
           1.34519592e-03     8.13574152e-05     0.00000000e+00    
           1.33539923e-03     7.32138142e-05     0.00000000e+00    
           1.32834783e-03     6.34665194e-05     0.00000000e+00    
           1.32480275e-03     5.24189891e-05     0.00000000e+00    
           1.32528786e-03     4.06164727e-05     0.00000000e+00    
           1.32863759e-03     2.92009372e-05     0.00000000e+00    
           1.33488874e-03     1.93231372e-05     0.00000000e+00    
           1.34319114e-03     9.41334201e-06     0.00000000e+00    
           5.66722068e-04    -6.35025162e-06     0.00000000e+00    
           5.80402790e-04    -1.06091684e-05     0.00000000e+00    
           5.94316924e-04    -1.21727899e-05     0.00000000e+00    
           6.07533264e-04    -1.11253512e-05     0.00000000e+00    
           6.19446451e-04    -7.73353531e-06     0.00000000e+00    
           8.00172566e-04    -7.35295180e-05     0.00000000e+00    
           8.13246123e-04    -6.76705022e-05     0.00000000e+00    
           8.24047311e-04    -5.98069746e-05     0.00000000e+00    
           8.31674726e-04    -5.02470793e-05     0.00000000e+00    
           8.36174702e-04    -3.99677447e-05     0.00000000e+00    
           8.36645602e-04    -2.91963988e-05     0.00000000e+00    
           8.33577360e-04    -1.95874363e-05     0.00000000e+00    
           8.28498101e-04    -1.03026978e-05     0.00000000e+00    
           8.20485584e-04    -3.05488612e-07     0.00000000e+00    
           8.09335557e-04     9.89450200e-06     0.00000000e+00    
           7.95501692e-04     1.79462750e-05     0.00000000e+00    
           7.80263683e-04     2.31366867e-05     0.00000000e+00    
           7.50478241e-04     2.37075237e-05     0.00000000e+00    
           7.37831637e-04     1.93643173e-05     0.00000000e+00    
           7.27697276e-04     1.27926978e-05     0.00000000e+00    
           7.20445591e-04     3.70912562e-06     0.00000000e+00    
           7.16172275e-04    -6.81384518e-06     0.00000000e+00    
           7.14964583e-04    -1.80165480e-05     0.00000000e+00    
           7.16533454e-04    -2.98960622e-05     0.00000000e+00    
           7.21866731e-04    -4.20416909e-05     0.00000000e+00    
           7.30810745e-04    -5.36747502e-05     0.00000000e+00    
           7.42475735e-04    -6.35715842e-05     0.00000000e+00    
           7.56116584e-04    -7.06975407e-05     0.00000000e+00    
           7.70771294e-04    -7.49062820e-05     0.00000000e+00    
           1.25868467e-03     3.26275331e-05     0.00000000e+00    
           1.26405794e-03     3.60148442e-05     0.00000000e+00    
           1.26799801e-03     4.05110186e-05     0.00000000e+00    
           1.27006380e-03     4.58633913e-05     0.00000000e+00    
           1.26951968e-03     5.16906039e-05     0.00000000e+00    
           1.26640243e-03     5.76532148e-05     0.00000000e+00    
           1.26081135e-03     6.29914939e-05     0.00000000e+00    
           1.25391991e-03     6.74167459e-05     0.00000000e+00    
           1.24600017e-03     7.11373505e-05     0.00000000e+00    
           1.23798009e-03     7.39742827e-05     0.00000000e+00    
           1.22336997e-03     7.41612093e-05     0.00000000e+00    
           1.21788296e-03     7.16674549e-05     0.00000000e+00    
           1.21397933e-03     6.80550875e-05     0.00000000e+00    
           1.21163041e-03     6.36916593e-05     0.00000000e+00    
           1.21143693e-03     5.84951704e-05     0.00000000e+00    
           1.21313136e-03     5.21819202e-05     0.00000000e+00    
           1.21813349e-03     4.50553125e-05     0.00000000e+00    
           1.22628862e-03     3.88811386e-05     0.00000000e+00    
           1.23485189e-03     3.45867484e-05     0.00000000e+00    
           1.24358211e-03     3.19089340e-05     0.00000000e+00    
           6.51498442e-04    -3.70205526e-05     0.00000000e+00    
           6.63292129e-04    -3.26805275e-05     0.00000000e+00    
           6.72722526e-04    -2.54755141e-05     0.00000000e+00    
           6.78858894e-04    -1.60337531e-05     0.00000000e+00    
           6.82398677e-04    -4.77896356e-06     0.00000000e+00    
           6.82659971e-04     6.43923113e-06     0.00000000e+00    
           6.78755401e-04     1.75115219e-05     0.00000000e+00    
           6.70504465e-04     2.82292094e-05     0.00000000e+00    
           6.59435522e-04     3.58698853e-05     0.00000000e+00    
           6.47115579e-04     4.16117400e-05     0.00000000e+00    
           6.33040851e-04     4.63682700e-05     0.00000000e+00    
           6.04716886e-04     4.63204160e-05     0.00000000e+00    
           5.92843629e-04     4.14749447e-05     0.00000000e+00    
           5.83352754e-04     3.40506376e-05     0.00000000e+00    
           5.76839841e-04     2.45735355e-05     0.00000000e+00    
           5.73871308e-04     1.35841719e-05     0.00000000e+00    
           5.74707461e-04     1.92294897e-06     0.00000000e+00    
           5.79289510e-04    -9.20739603e-06     0.00000000e+00    
           5.87303482e-04    -1.91234813e-05     0.00000000e+00    
           5.98018931e-04    -2.68984186e-05     0.00000000e+00    
           6.10132352e-04    -3.31276751e-05     0.00000000e+00    
           6.23635191e-04    -3.71251845e-05     0.00000000e+00    
           1.33819442e-04     5.99734121e-05     0.00000000e+00    
           1.27729771e-04     4.81456482e-05     0.00000000e+00    
           1.25086546e-04     3.50270748e-05     0.00000000e+00    
           1.26023340e-04     2.13102139e-05     0.00000000e+00    
           1.30796558e-04     7.30008378e-06     0.00000000e+00    
           1.40257398e-04    -7.13702684e-06     0.00000000e+00    
           1.53894245e-04    -1.99739570e-05     0.00000000e+00    
           1.70024025e-04    -2.98416708e-05     0.00000000e+00    
           1.87451253e-04    -3.65200758e-05     0.00000000e+00    
           2.21120921e-04    -3.67264547e-05     0.00000000e+00    
           2.35203610e-04    -3.13117343e-05     0.00000000e+00    
           2.46629206e-04    -2.28126482e-05     0.00000000e+00    
           2.55549065e-04    -1.14171507e-05     0.00000000e+00    
           2.61168578e-04     2.52475434e-06     0.00000000e+00    
           2.62595364e-04     1.81279720e-05     0.00000000e+00    
           2.59213120e-04     3.40845691e-05     0.00000000e+00    
           2.51391291e-04     4.92184772e-05     0.00000000e+00    
           2.39602901e-04     6.21766012e-05     0.00000000e+00    
           1.00817322e-03     7.91627390e-05     0.00000000e+00    
           9.90268425e-04     8.22420552e-05     0.00000000e+00    
           9.72618174e-04     8.21297945e-05     0.00000000e+00    
           9.56722011e-04     7.75615626e-05     0.00000000e+00    
           4.66822850e-04    -4.25026919e-05     0.00000000e+00    
           4.79811424e-04    -3.71721362e-05     0.00000000e+00    
           4.89767524e-04    -2.89001327e-05     0.00000000e+00    
           4.95856802e-04    -1.84210912e-05     0.00000000e+00    
           4.98651294e-04    -6.91907690e-06     0.00000000e+00    
           4.98047157e-04     5.03106003e-06     0.00000000e+00    
           4.93851723e-04     1.71791144e-05     0.00000000e+00    
           4.85635828e-04     2.99308140e-05     0.00000000e+00    
           4.73570079e-04     4.20077922e-05     0.00000000e+00    
           4.59783623e-04     5.12101069e-05     0.00000000e+00    
           4.45275771e-04     5.69500262e-05     0.00000000e+00    
           4.16697963e-04     5.72269382e-05     0.00000000e+00    
           4.03705228e-04     5.24781281e-05     0.00000000e+00    
           3.92718561e-04     4.47819621e-05     0.00000000e+00    
           3.84552550e-04     3.42110725e-05     0.00000000e+00    
           3.79806967e-04     2.13513358e-05     0.00000000e+00    
           3.79401376e-04     7.06572018e-06     0.00000000e+00    
           3.83700273e-04    -7.53395398e-06     0.00000000e+00    
           3.91983573e-04    -2.02141109e-05     0.00000000e+00    
           4.03884740e-04    -3.05016583e-05     0.00000000e+00    