<?xml version="1.0"?>
<VTKFile type="UnstructuredGrid" version="0.1">
  <UnstructuredGrid>
    <Piece NumberOfPoints="1034" NumberOfCells="1614">
      <Points>
        <DataArray type="Float32" NumberOfComponents="3">
           5.21582007e-01     5.11657000e-01     0.00000000e+00    
           5.07319987e-01     5.11657000e-01     0.00000000e+00    
           4.65243995e-01     5.17907977e-01     0.00000000e+00    
           4.65243995e-01     5.04921973e-01     0.00000000e+00    
           4.75246996e-01     5.11415005e-01     0.00000000e+00    
           5.33852994e-01     5.04921973e-01     0.00000000e+00    
           5.33852994e-01     5.17907977e-01     0.00000000e+00    
           4.83779997e-01     5.34618974e-01     0.00000000e+00    
           4.68984991e-01     5.34618974e-01     0.00000000e+00    
           4.76381987e-01     5.23841977e-01     0.00000000e+00    
           4.68984991e-01     4.66010004e-01     0.00000000e+00    
           4.83779997e-01     4.66010004e-01     0.00000000e+00    
           4.99920011e-01     5.34618974e-01     0.00000000e+00    
           4.89203990e-01     5.34618974e-01     0.00000000e+00    
           4.94562000e-01     5.22280991e-01     0.00000000e+00    
           4.89203990e-01     4.66010004e-01     0.00000000e+00    
           4.99920011e-01     4.66010004e-01     0.00000000e+00    
           5.32517016e-01     4.74112004e-01     0.00000000e+00    
           5.17961025e-01     4.74112004e-01     0.00000000e+00    
           5.33852994e-01     5.19801974e-01     0.00000000e+00    
           5.33852994e-01     5.29603004e-01     0.00000000e+00    
           5.19536972e-01     5.24702013e-01     0.00000000e+00    
           4.65243995e-01     5.29603004e-01     0.00000000e+00    
           4.65243995e-01     5.19801974e-01     0.00000000e+00    
           4.92487997e-01     5.17117977e-01     0.00000000e+00    
           4.76904988e-01     5.17117977e-01     0.00000000e+00    
           5.17996013e-01     5.27033985e-01     0.00000000e+00    
           5.04473984e-01     5.27033985e-01     0.00000000e+00    
           5.08446991e-01     4.83435005e-01     0.00000000e+00    
           4.94414002e-01     4.83435005e-01     0.00000000e+00    
           4.65243995e-01     4.83101994e-01     0.00000000e+00    
           4.65243995e-01     4.74415004e-01     0.00000000e+00    
           4.78336990e-01     4.78758007e-01     0.00000000e+00    
           5.33852994e-01     4.74415004e-01     0.00000000e+00    
           5.33852994e-01     4.83101994e-01     0.00000000e+00    
           4.80668008e-01     4.95810986e-01     0.00000000e+00    
           4.66084987e-01     4.95810986e-01     0.00000000e+00    
           4.93930012e-01     4.79214013e-01     0.00000000e+00    
           4.78967011e-01     4.79214013e-01     0.00000000e+00    
           5.09284973e-01     4.97658014e-01     0.00000000e+00    
           4.95503992e-01     4.97658014e-01     0.00000000e+00    
           5.33011973e-01     5.01751006e-01     0.00000000e+00    
           5.17829001e-01     5.01751006e-01     0.00000000e+00    
           4.95451003e-01     5.00564992e-01     0.00000000e+00    
           4.80922014e-01     5.00564992e-01     0.00000000e+00    
           5.25367022e-01     4.88312006e-01     0.00000000e+00    
           5.09521008e-01     4.88312006e-01     0.00000000e+00    
           4.65243995e-01     5.34618974e-01     0.00000000e+00    
           4.65243995e-01     4.66010004e-01     0.00000000e+00    
           5.33852994e-01     4.66010004e-01     0.00000000e+00    
           5.33852994e-01     5.34618974e-01     0.00000000e+00    
           5.21338999e-01     5.13502657e-01     0.00000000e+00    
           5.20626605e-01     5.15222490e-01     0.00000000e+00    
           5.19493401e-01     5.16699374e-01     0.00000000e+00    
           5.18016517e-01     5.17832637e-01     0.00000000e+00    
           5.16296625e-01     5.18545032e-01     0.00000000e+00    
           5.14451027e-01     5.18787980e-01     0.00000000e+00    
           5.12605369e-01     5.18545032e-01     0.00000000e+00    
           5.10885477e-01     5.17832637e-01     0.00000000e+00    
           5.09408593e-01     5.16699374e-01     0.00000000e+00    
           5.08275390e-01     5.15222490e-01     0.00000000e+00    
           5.07562995e-01     5.13502657e-01     0.00000000e+00    
           5.07562995e-01     5.09811342e-01     0.00000000e+00    
           5.08275390e-01     5.08091509e-01     0.00000000e+00    
           5.09408593e-01     5.06614625e-01     0.00000000e+00    
           5.10885477e-01     5.05481362e-01     0.00000000e+00    
           5.12605369e-01     5.04768968e-01     0.00000000e+00    
           5.14451027e-01     5.04526019e-01     0.00000000e+00    
           5.16296625e-01     5.04768968e-01     0.00000000e+00    
           5.18016517e-01     5.05481362e-01     0.00000000e+00    
           5.19493401e-01     5.06614625e-01     0.00000000e+00    
           5.20626605e-01     5.08091509e-01     0.00000000e+00    
           5.21338999e-01     5.09811342e-01     0.00000000e+00    
           4.66931671e-01     5.04409373e-01     0.00000000e+00    
           4.68693614e-01     5.04328012e-01     0.00000000e+00    
           4.70421344e-01     5.04682958e-01     0.00000000e+00    
           4.72008497e-01     5.05452335e-01     0.00000000e+00    
           4.73357379e-01     5.06588817e-01     0.00000000e+00    
           4.74384934e-01     5.08022368e-01     0.00000000e+00    
           4.75027919e-01     5.09664834e-01     0.00000000e+00    
           4.75028187e-01     5.13165236e-01     0.00000000e+00    
           4.74385172e-01     5.14807761e-01     0.00000000e+00    
           4.73357558e-01     5.16241372e-01     0.00000000e+00    
           4.72008646e-01     5.17377913e-01     0.00000000e+00    
           4.70421433e-01     5.18147290e-01     0.00000000e+00    
           4.68693614e-01     5.18502235e-01     0.00000000e+00    
           4.66931641e-01     5.18420875e-01     0.00000000e+00    
           5.32303810e-01     5.16964078e-01     0.00000000e+00    
           5.31043947e-01     5.15658796e-01     0.00000000e+00    
           5.30155540e-01     5.14077127e-01     0.00000000e+00    
           5.29696345e-01     5.12322068e-01     0.00000000e+00    
           5.29696345e-01     5.10507941e-01     0.00000000e+00    
           5.30155540e-01     5.08752882e-01     0.00000000e+00    
           5.31043947e-01     5.07171214e-01     0.00000000e+00    
           5.32303810e-01     5.05865932e-01     0.00000000e+00    
           4.68517244e-01     5.32760799e-01     0.00000000e+00    
           4.68509018e-01     5.30844629e-01     0.00000000e+00    
           4.68960851e-01     5.28982460e-01     0.00000000e+00    
           4.69846308e-01     5.27283132e-01     0.00000000e+00    
           4.71113682e-01     5.25845945e-01     0.00000000e+00    
           4.72688884e-01     5.24754822e-01     0.00000000e+00    
           4.74479854e-01     5.24073541e-01     0.00000000e+00    
           4.78284091e-01     5.24073601e-01     0.00000000e+00    
           4.80075032e-01     5.24754822e-01     0.00000000e+00    
           4.81650203e-01     5.25845885e-01     0.00000000e+00    
           4.82917547e-01     5.27283013e-01     0.00000000e+00    
           4.83803004e-01     5.28982282e-01     0.00000000e+00    
           4.84254897e-01     5.30844331e-01     0.00000000e+00    
           4.84246761e-01     5.32760441e-01     0.00000000e+00    
           4.82887864e-01     4.67691004e-01     0.00000000e+00    
           4.81620818e-01     4.69110936e-01     0.00000000e+00    
           4.80051905e-01     4.70188022e-01     0.00000000e+00    
           4.78271484e-01     4.70860153e-01     0.00000000e+00    
           4.76382166e-01     4.71088618e-01     0.00000000e+00    
           4.74492878e-01     4.70860243e-01     0.00000000e+00    
           4.72712427e-01     4.70188200e-01     0.00000000e+00    
           4.71143454e-01     4.69111174e-01     0.00000000e+00    
           4.69876349e-01     4.67691302e-01     0.00000000e+00    
           4.88103986e-01     5.33086061e-01     0.00000000e+00    
           4.87431526e-01     5.31323195e-01     0.00000000e+00    
           4.87231195e-01     5.29447019e-01     0.00000000e+00    
           4.87516224e-01     5.27581930e-01     0.00000000e+00    
           4.88267750e-01     5.25851250e-01     0.00000000e+00    
           4.89436030e-01     5.24369657e-01     0.00000000e+00    
           4.90943670e-01     5.23235261e-01     0.00000000e+00    
           4.92690891e-01     5.22523046e-01     0.00000000e+00    
           4.96432930e-01     5.22523701e-01     0.00000000e+00    
           4.98180002e-01     5.23235798e-01     0.00000000e+00    
           4.99687493e-01     5.24370134e-01     0.00000000e+00    
           5.00855684e-01     5.25851607e-01     0.00000000e+00    
           5.01607120e-01     5.27582109e-01     0.00000000e+00    
           5.01892149e-01     5.29447079e-01     0.00000000e+00    
           5.01691818e-01     5.31323016e-01     0.00000000e+00    
           5.01019418e-01     5.33085763e-01     0.00000000e+00    
           4.98371124e-01     4.67269689e-01     0.00000000e+00    
           4.96539861e-01     4.68064904e-01     0.00000000e+00    
           4.94562000e-01     4.68336672e-01     0.00000000e+00    
           4.92584139e-01     4.68064904e-01     0.00000000e+00    
           4.90752876e-01     4.67269689e-01     0.00000000e+00    
           5.32269001e-01     4.75995690e-01     0.00000000e+00    
           5.31541944e-01     4.77750987e-01     0.00000000e+00    
           5.30385315e-01     4.79258329e-01     0.00000000e+00    
           5.28877974e-01     4.80414927e-01     0.00000000e+00    
[...]
      <PointData>
        <DataArray type="Float32" Name="Displacement" NumberOfComponents="3">
           5.86362963e-04     1.02650537e-03     0.00000000e+00    
           5.78874431e-04     1.15477922e-03     0.00000000e+00    
           6.21388666e-04     1.09280285e-03     0.00000000e+00    
           5.40699111e-04     1.07192341e-03     0.00000000e+00    
           5.86884271e-04     1.02912122e-03     0.00000000e+00    
           5.40699111e-04     1.07192341e-03     0.00000000e+00    
           6.21388666e-04     1.09280285e-03     0.00000000e+00    
           7.96854671e-04     1.47964223e-03     0.00000000e+00    
           7.92594918e-04     1.53275637e-03     0.00000000e+00    
           7.51994492e-04     1.48728839e-03     0.00000000e+00    
           1.75949281e-05    -1.72435703e-05     0.00000000e+00    
           2.18546502e-05    -7.03577607e-05     0.00000000e+00    
           7.88924459e-04     1.45878107e-03     0.00000000e+00    
           7.85010110e-04     1.51233235e-03     0.00000000e+00    
           7.16781360e-04     1.46502489e-03     0.00000000e+00    
           1.00100988e-05    -3.76676071e-05     0.00000000e+00    
           1.39244576e-05    -9.12189571e-05     0.00000000e+00    
           1.90588107e-04     2.33816594e-04     0.00000000e+00    
           1.81296622e-04     2.99200707e-04     0.00000000e+00    
           7.24663667e-04     1.28151604e-03     0.00000000e+00    
           7.78856222e-04     1.30034075e-03     0.00000000e+00    
           7.50280044e-04     1.36409001e-03     0.00000000e+00    
           7.78856222e-04     1.30034075e-03     0.00000000e+00    
           7.24663667e-04     1.28151604e-03     0.00000000e+00    
           6.41946041e-04     1.17372652e-03     0.00000000e+00    
           6.33822288e-04     1.23750104e-03     0.00000000e+00    
           7.65106583e-04     1.36605673e-03     0.00000000e+00    
           7.64612865e-04     1.43637671e-03     0.00000000e+00    
           2.81776214e-04     4.87896934e-04     0.00000000e+00    
           2.72264006e-04     4.73882363e-04     0.00000000e+00    
           2.25442695e-04     3.18009465e-04     0.00000000e+00    
           2.19054782e-04     3.03418899e-04     0.00000000e+00    
           2.28156321e-04     3.13787576e-04     0.00000000e+00    
           2.19054782e-04     3.03418899e-04     0.00000000e+00    
           2.25442695e-04     3.18009465e-04     0.00000000e+00    
           4.21167031e-04     7.37952185e-04     0.00000000e+00    
           4.15474031e-04     7.92584382e-04     0.00000000e+00    
           2.49327713e-04     3.66610708e-04     0.00000000e+00    
           2.40629714e-04     3.44996282e-04     0.00000000e+00    
           4.42815042e-04     6.80256519e-04     0.00000000e+00    
           4.37552604e-04     7.68143858e-04     0.00000000e+00    
           4.76807269e-04     8.54982703e-04     0.00000000e+00    
           4.69619292e-04     1.00250414e-03     0.00000000e+00    
           4.46562743e-04     7.75246357e-04     0.00000000e+00    
           4.41438839e-04     8.25214665e-04     0.00000000e+00    
           3.55127995e-04     4.90362349e-04     0.00000000e+00    
           3.45209555e-04     5.81691274e-04     0.00000000e+00    
           7.75000022e-04     1.55000004e-03     0.00000000e+00    
           0.00000000e+00     0.00000000e+00     0.00000000e+00    
           0.00000000e+00     0.00000000e+00     0.00000000e+00    
           7.75000022e-04     1.55000004e-03     0.00000000e+00    
           6.03540218e-04     1.03303103e-03     0.00000000e+00    
           6.19965489e-04     1.04200584e-03     0.00000000e+00    
           6.33863325e-04     1.05464738e-03     0.00000000e+00    
           6.43809966e-04     1.06993516e-03     0.00000000e+00    
           6.49436319e-04     1.08670117e-03     0.00000000e+00    
           6.50434988e-04     1.10388128e-03     0.00000000e+00    
           6.47248060e-04     1.12029153e-03     0.00000000e+00    
           6.40034792e-04     1.13481155e-03     0.00000000e+00    
           6.28748734e-04     1.14645972e-03     0.00000000e+00    
           6.13408396e-04     1.15363358e-03     0.00000000e+00    
           5.96376951e-04     1.15634350e-03     0.00000000e+00    
           5.61841589e-04     1.14939082e-03     0.00000000e+00    
           5.45700022e-04     1.14105933e-03     0.00000000e+00    
           5.31681930e-04     1.12921791e-03     0.00000000e+00    
           5.20926551e-04     1.11482316e-03     0.00000000e+00    
           5.14303916e-04     1.09858194e-03     0.00000000e+00    
           5.12128929e-04     1.08183466e-03     0.00000000e+00    
           5.14793443e-04     1.06537854e-03     0.00000000e+00    
           5.22403163e-04     1.04960427e-03     0.00000000e+00    
           5.34968101e-04     1.03651918e-03     0.00000000e+00    
           5.49681543e-04     1.02776580e-03     0.00000000e+00    
           5.67400188e-04     1.02455309e-03     0.00000000e+00    
           5.38956316e-04     1.06171297e-03     0.00000000e+00    
           5.39780827e-04     1.05173863e-03     0.00000000e+00    
           5.42798720e-04     1.04260701e-03     0.00000000e+00    
           5.48111275e-04     1.03490800e-03     0.00000000e+00    
           5.55885665e-04     1.02936279e-03     0.00000000e+00    
           5.65800641e-04     1.02633669e-03     0.00000000e+00    
           5.76526450e-04     1.02679688e-03     0.00000000e+00    
           5.96255413e-04     1.03331043e-03     0.00000000e+00    
           6.05253328e-04     1.03865284e-03     0.00000000e+00    
           6.13146403e-04     1.04576547e-03     0.00000000e+00    
           6.19466242e-04     1.05409615e-03     0.00000000e+00    
           6.23719592e-04     1.06366014e-03     0.00000000e+00    
           6.25589979e-04     1.07374648e-03     0.00000000e+00    
           6.24664768e-04     1.08379126e-03     0.00000000e+00    
           6.15185359e-04     1.10066787e-03     0.00000000e+00    
           6.06267422e-04     1.10623310e-03     0.00000000e+00    
           5.95255406e-04     1.10822730e-03     0.00000000e+00    
           5.83643676e-04     1.10705604e-03     0.00000000e+00    
           5.73112455e-04     1.10284262e-03     0.00000000e+00    
           5.62489440e-04     1.09763211e-03     0.00000000e+00    
           5.52844547e-04     1.09091960e-03     0.00000000e+00    
           5.45410672e-04     1.08206831e-03     0.00000000e+00    
           7.83542288e-04     1.53011642e-03     0.00000000e+00    
           7.76158646e-04     1.52583420e-03     0.00000000e+00    
           7.69890030e-04     1.52096804e-03     0.00000000e+00    
           7.63799122e-04     1.51543051e-03     0.00000000e+00    
           7.58542446e-04     1.50915794e-03     0.00000000e+00    
           7.54621171e-04     1.50226767e-03     0.00000000e+00    
           7.52255961e-04     1.49476307e-03     0.00000000e+00    
           7.53652072e-04     1.48037251e-03     0.00000000e+00    
           7.57083588e-04     1.47477968e-03     0.00000000e+00    
           7.61669420e-04     1.47058908e-03     0.00000000e+00    
           7.67273770e-04     1.46792014e-03     0.00000000e+00    
           7.73620908e-04     1.46844750e-03     0.00000000e+00    
           7.80508388e-04     1.47163158e-03     0.00000000e+00    
           7.88438658e-04     1.47511193e-03     0.00000000e+00    
           2.97953375e-05    -6.51060545e-05     0.00000000e+00    
           3.60369559e-05    -5.86318820e-05     0.00000000e+00    
           4.04533566e-05    -5.14493586e-05     0.00000000e+00    
           4.26582701e-05    -4.38066745e-05     0.00000000e+00    
           4.27392260e-05    -3.65406850e-05     0.00000000e+00    
           4.09904205e-05    -2.99512703e-05     0.00000000e+00    
           3.77020297e-05    -2.43475897e-05     0.00000000e+00    
           3.30350704e-05    -2.00487302e-05     0.00000000e+00    
           2.59908466e-05    -1.76103913e-05     0.00000000e+00    
           7.76609057e-04     1.51452469e-03     0.00000000e+00    
           7.67644146e-04     1.51354133e-03     0.00000000e+00    
           7.57800415e-04     1.51076773e-03     0.00000000e+00    
           7.46729493e-04     1.50624756e-03     0.00000000e+00    
           7.35640118e-04     1.50087837e-03     0.00000000e+00    
           7.26715080e-04     1.49337691e-03     0.00000000e+00    
           7.20564101e-04     1.48435088e-03     0.00000000e+00    
           7.17227231e-04     1.47467677e-03     0.00000000e+00    
           7.18992495e-04     1.45609293e-03     0.00000000e+00    
           7.23937294e-04     1.44864968e-03     0.00000000e+00    
           7.30944972e-04     1.44333043e-03     0.00000000e+00    
           7.39452022e-04     1.44009292e-03     0.00000000e+00    
           7.48968567e-04     1.43940933e-03     0.00000000e+00    
           7.59502233e-04     1.44082005e-03     0.00000000e+00    
           7.70367857e-04     1.44492311e-03     0.00000000e+00    
           7.80483009e-04     1.45088218e-03     0.00000000e+00    
           2.04424105e-05    -8.16455358e-05     0.00000000e+00    
           2.41048419e-05    -7.12720721e-05     0.00000000e+00    
           2.47608041e-05    -6.09501403e-05     0.00000000e+00    
           2.24317846e-05    -5.13366685e-05     0.00000000e+00    
           1.73481567e-05    -4.32938614e-05     0.00000000e+00    
           1.99493006e-04     2.37579618e-04     0.00000000e+00    
           2.07073404e-04     2.42775131e-04     0.00000000e+00    
           2.13056745e-04     2.49526784e-04     0.00000000e+00    
           2.18240995e-04     2.57661362e-04     0.00000000e+00    
           2.21684546e-04     2.67098658e-04     0.00000000e+00    
           2.22251838e-04     2.76650302e-04     0.00000000e+00    
           2.20714617e-04     2.85722665e-04     0.00000000e+00    
           2.16378307e-04     2.93461431e-04     0.00000000e+00    
           2.10091428e-04     2.99492676e-04     0.00000000e+00    
           2.01527204e-04     3.02933215e-04     0.00000000e+00    
           1.91128449e-04     3.02945991e-04     0.00000000e+00    
           1.71636348e-04     2.94617465e-04     0.00000000e+00    
           1.63344856e-04     2.88243580e-04     0.00000000e+00    
           1.56200069e-04     2.80855340e-04     0.00000000e+00    
           1.50917549e-04     2.72377249e-04     0.00000000e+00    
           1.48052277e-04     2.63286405e-04     0.00000000e+00    
           1.47690138e-04     2.54241255e-04     0.00000000e+00    
           1.49514992e-04     2.45781528e-04     0.00000000e+00    
           1.53484769e-04     2.38776003e-04     0.00000000e+00    
           1.60317548e-04     2.33254585e-04     0.00000000e+00    
           1.69955849e-04     2.30511621e-04     0.00000000e+00    
           1.80721341e-04     2.30781443e-04     0.00000000e+00    
           7.86032993e-04     1.30909344e-03     0.00000000e+00    
           7.91114406e-04     1.31910818e-03     0.00000000e+00    
           7.93767453e-04     1.32953830e-03     0.00000000e+00    
           7.94097199e-04     1.33980170e-03     0.00000000e+00    
           7.91951781e-04     1.34919514e-03     0.00000000e+00    
           7.87074096e-04     1.35729322e-03     0.00000000e+00    
           7.79599999e-04     1.36299920e-03     0.00000000e+00    
           7.71173334e-04     1.36574567e-03     0.00000000e+00    
           7.61719712e-04     1.36598386e-03     0.00000000e+00    
           7.37605675e-04     1.35972258e-03     0.00000000e+00    
           7.25419202e-04     1.35352078e-03     0.00000000e+00    
           7.15753762e-04     1.34520291e-03     0.00000000e+00    
           7.08572567e-04     1.33551413e-03     0.00000000e+00    
           7.04381906e-04     1.32489600e-03     0.00000000e+00    
           7.03063153e-04     1.31409161e-03     0.00000000e+00    
           7.04704958e-04     1.30364357e-03     0.00000000e+00    
           7.08768959e-04     1.29425572e-03     0.00000000e+00    
           7.15521222e-04     1.28672074e-03     0.00000000e+00    
           7.34525092e-04     1.27952755e-03     0.00000000e+00    
           7.44738616e-04     1.28058589e-03     0.00000000e+00    
           7.54434674e-04     1.28371525e-03     0.00000000e+00    
           7.63024262e-04     1.28850539e-03     0.00000000e+00    
           7.71243474e-04     1.29376457e-03     0.00000000e+00    
           6.50539063e-04     1.17835018e-03     0.00000000e+00    
           6.58589939e-04     1.18387397e-03     0.00000000e+00    
           6.66217005e-04     1.19018496e-03     0.00000000e+00    
           6.71696675e-04     1.19789352e-03     0.00000000e+00    
           6.74930809e-04     1.20630732e-03     0.00000000e+00    
           6.75688905e-04     1.21498969e-03     0.00000000e+00    
           6.74313109e-04     1.22301723e-03     0.00000000e+00    
           6.71104703e-04     1.23023696e-03     0.00000000e+00    
           6.66164851e-04     1.23604562e-03     0.00000000e+00    
           6.59917889e-04     1.24041957e-03     0.00000000e+00    
           6.51377952e-04     1.24218909e-03     0.00000000e+00    
           6.42535393e-04     1.24038197e-03     0.00000000e+00    
           6.25920540e-04     1.23294245e-03     0.00000000e+00    
           6.18628808e-04     1.22768956e-03     0.00000000e+00    
           6.12164440e-04     1.22133049e-03     0.00000000e+00    
           6.07109803e-04     1.21402636e-03     0.00000000e+00    
           6.03596971e-04     1.20599475e-03     0.00000000e+00    
           6.02031883e-04     1.19763869e-03     0.00000000e+00    
           6.02655753e-04     1.18968904e-03     0.00000000e+00    
           6.04902161e-04     1.18244777e-03     0.00000000e+00    
           6.09098817e-04     1.17649685e-03     0.00000000e+00    
           6.15201716e-04     1.17202767e-03     0.00000000e+00    
           6.23515749e-04     1.16994686e-03     0.00000000e+00    
           6.32783805e-04     1.17074663e-03     0.00000000e+00    
           7.76996196e-04     1.37048867e-03     0.00000000e+00    
           7.88414385e-04     1.37735193e-03     0.00000000e+00    
           7.97335524e-04     1.38625898e-03     0.00000000e+00    
           8.03037430e-04     1.39644893e-03     0.00000000e+00    
           8.05399206e-04     1.40715041e-03     0.00000000e+00    
           8.04419338e-04     1.41745247e-03     0.00000000e+00    
           8.00499984e-04     1.42646639e-03     0.00000000e+00    
           7.93871528e-04     1.43327017e-03     0.00000000e+00    
           7.85150507e-04     1.43724529e-03     0.00000000e+00    
           7.75352761e-04     1.43794424e-03     0.00000000e+00    
           7.53540720e-04     1.43183302e-03     0.00000000e+00    
           7.43456010e-04     1.42488081e-03     0.00000000e+00    
           7.35418464e-04     1.41580461e-03     0.00000000e+00    
           7.30263477e-04     1.40531734e-03     0.00000000e+00    
           7.27779290e-04     1.39452063e-03     0.00000000e+00    
           7.28507875e-04     1.38433301e-03     0.00000000e+00    
           7.31704058e-04     1.37538009e-03     0.00000000e+00    
           7.37511960e-04     1.36848108e-03     0.00000000e+00    
           7.45302706e-04     1.36497128e-03     0.00000000e+00    
           7.54233333e-04     1.36426010e-03     0.00000000e+00    
           2.81860936e-04     4.90627950e-04     0.00000000e+00    
           2.81063811e-04     4.92366496e-04     0.00000000e+00    
           2.79719825e-04     4.93521802e-04     0.00000000e+00    
           2.78499938e-04     4.93969244e-04     0.00000000e+00    
           2.77259824e-04     4.93496133e-04     0.00000000e+00    
           2.76309176e-04     4.92389314e-04     0.00000000e+00    
           2.75633211e-04     4.90659440e-04     0.00000000e+00    
           2.75316415e-04     4.88523394e-04     0.00000000e+00    
           2.73746729e-04     4.85883647e-04     0.00000000e+00    
           2.72385194e-04     4.82170406e-04     0.00000000e+00    
           2.71610945e-04     4.77873371e-04     0.00000000e+00    
           2.73256417e-04     4.71709238e-04     0.00000000e+00    
           2.74404971e-04     4.70164086e-04     0.00000000e+00    
           2.76061794e-04     4.69566847e-04     0.00000000e+00    
           2.77153682e-04     4.69580293e-04     0.00000000e+00    
           2.77979299e-04     4.70220635e-04     0.00000000e+00    
           2.78421619e-04     4.71373321e-04     0.00000000e+00    
           2.78850319e-04     4.72887681e-04     0.00000000e+00    
           2.79151805e-04     4.74724278e-04     0.00000000e+00    
           2.79956701e-04     4.77143447e-04     0.00000000e+00    
           2.81056593e-04     4.80149698e-04     0.00000000e+00    
           2.81897694e-04     4.83980722e-04     0.00000000e+00    
           2.19722278e-04     3.01869208e-04     0.00000000e+00    
           2.20385016e-04     3.00496322e-04     0.00000000e+00    
           2.21205279e-04     2.99815030e-04     0.00000000e+00    
           2.22107963e-04     2.99713080e-04     0.00000000e+00    
           2.23127659e-04     3.00248503e-04     0.00000000e+00    
           2.24383402e-04     3.01325694e-04     0.00000000e+00    
           2.26104094e-04     3.03180248e-04     0.00000000e+00    
           2.27552882e-04     3.06836067e-04     0.00000000e+00    
           2.28093311e-04     3.10777570e-04     0.00000000e+00    
           2.28136196e-04     3.15934449e-04     0.00000000e+00    
           2.28158868e-04     3.17988248e-04     0.00000000e+00    
           2.28569334e-04     3.20098799e-04     0.00000000e+00    
           2.28705845e-04     3.21400235e-04     0.00000000e+00    
           2.28901525e-04     3.22185428e-04     0.00000000e+00    
           2.28629433e-04     3.22428154e-04     0.00000000e+00    
           2.28243007e-04     3.22097942e-04     0.00000000e+00    
           2.27750410e-04     3.21320433e-04     0.00000000e+00    
           2.27107259e-04     3.19874060e-04     0.00000000e+00    
           2.23465191e-04     3.14906763e-04     0.00000000e+00    
           2.21828435e-04     3.10761534e-04     0.00000000e+00    
           2.20708855e-04     3.07544251e-04     0.00000000e+00    
           2.19437046e-04     3.05553840e-04     0.00000000e+00    
           4.27797379e-04     7.42355478e-04     0.00000000e+00    
           4.34225309e-04     7.47106329e-04     0.00000000e+00    
           4.39790660e-04     7.52854743e-04     0.00000000e+00    
           4.44730307e-04     7.60018651e-04     0.00000000e+00    
           4.47661238e-04     7.67983322e-04     0.00000000e+00    
           4.48414008e-04     7.75727502e-04     0.00000000e+00    
           4.47126338e-04     7.82791059e-04     0.00000000e+00    
           4.44301317e-04     7.88719219e-04     0.00000000e+00    
           4.40088392e-04     7.93002080e-04     0.00000000e+00    
           4.33746987e-04     7.95164087e-04     0.00000000e+00    
           4.25160484e-04     7.94893422e-04     0.00000000e+00    
           4.06448089e-04     7.88198842e-04     0.00000000e+00    
           3.98911827e-04     7.82072020e-04     0.00000000e+00    
           3.93152121e-04     7.75090302e-04     0.00000000e+00    
           3.88750777e-04     7.67598103e-04     0.00000000e+00    
           3.86330852e-04     7.59830000e-04     0.00000000e+00    
           3.85826628e-04     7.51988555e-04     0.00000000e+00    
           3.87413398e-04     7.44840829e-04     0.00000000e+00    
           3.91421490e-04     7.38746428e-04     0.00000000e+00    
           3.97558761e-04     7.34582893e-04     0.00000000e+00    