<?xml version="1.0"?>
<VTKFile type="UnstructuredGrid" version="0.1">
  <UnstructuredGrid>
    <Piece NumberOfPoints="1034" NumberOfCells="1614">
      <Points>
        <DataArray type="Float32" NumberOfComponents="3">
           5.21582007e-01     5.11657000e-01     0.00000000e+00    
           5.07319987e-01     5.11657000e-01     0.00000000e+00    
           4.65243995e-01     5.17907977e-01     0.00000000e+00    
           4.65243995e-01     5.04921973e-01     0.00000000e+00    
           4.75246996e-01     5.11415005e-01     0.00000000e+00    
           5.33852994e-01     5.04921973e-01     0.00000000e+00    
           5.33852994e-01     5.17907977e-01     0.00000000e+00    
           4.83779997e-01     5.34618974e-01     0.00000000e+00    
           4.68984991e-01     5.34618974e-01     0.00000000e+00    
           4.76381987e-01     5.23841977e-01     0.00000000e+00    
           4.68984991e-01     4.66010004e-01     0.00000000e+00    
           4.83779997e-01     4.66010004e-01     0.00000000e+00    
           4.99920011e-01     5.34618974e-01     0.00000000e+00    
           4.89203990e-01     5.34618974e-01     0.00000000e+00    
           4.94562000e-01     5.22280991e-01     0.00000000e+00    
           4.89203990e-01     4.66010004e-01     0.00000000e+00    
           4.99920011e-01     4.66010004e-01     0.00000000e+00    
           5.32517016e-01     4.74112004e-01     0.00000000e+00    
           5.17961025e-01     4.74112004e-01     0.00000000e+00    
           5.33852994e-01     5.19801974e-01     0.00000000e+00    
           5.33852994e-01     5.29603004e-01     0.00000000e+00    
           5.19536972e-01     5.24702013e-01     0.00000000e+00    
           4.65243995e-01     5.29603004e-01     0.00000000e+00    
           4.65243995e-01     5.19801974e-01     0.00000000e+00    
           4.92487997e-01     5.17117977e-01     0.00000000e+00    
           4.76904988e-01     5.17117977e-01     0.00000000e+00    
           5.17996013e-01     5.27033985e-01     0.00000000e+00    
           5.04473984e-01     5.27033985e-01     0.00000000e+00    
           5.08446991e-01     4.83435005e-01     0.00000000e+00    
           4.94414002e-01     4.83435005e-01     0.00000000e+00    
           4.65243995e-01     4.83101994e-01     0.00000000e+00    
           4.65243995e-01     4.74415004e-01     0.00000000e+00    
           4.78336990e-01     4.78758007e-01     0.00000000e+00    
           5.33852994e-01     4.74415004e-01     0.00000000e+00    
           5.33852994e-01     4.83101994e-01     0.00000000e+00    
           4.80668008e-01     4.95810986e-01     0.00000000e+00    
           4.66084987e-01     4.95810986e-01     0.00000000e+00    
           4.93930012e-01     4.79214013e-01     0.00000000e+00    
           4.78967011e-01     4.79214013e-01     0.00000000e+00    
           5.09284973e-01     4.97658014e-01     0.00000000e+00    
           4.95503992e-01     4.97658014e-01     0.00000000e+00    
           5.33011973e-01     5.01751006e-01     0.00000000e+00    
           5.17829001e-01     5.01751006e-01     0.00000000e+00    
           4.95451003e-01     5.00564992e-01     0.00000000e+00    
           4.80922014e-01     5.00564992e-01     0.00000000e+00    
           5.25367022e-01     4.88312006e-01     0.00000000e+00    
           5.09521008e-01     4.88312006e-01     0.00000000e+00    
           4.65243995e-01     5.34618974e-01     0.00000000e+00    
           4.65243995e-01     4.66010004e-01     0.00000000e+00    
           5.33852994e-01     4.66010004e-01     0.00000000e+00    
           5.33852994e-01     5.34618974e-01     0.00000000e+00    
           5.21338999e-01     5.13502657e-01     0.00000000e+00    
           5.20626605e-01     5.15222490e-01     0.00000000e+00    
           5.19493401e-01     5.16699374e-01     0.00000000e+00    
           5.18016517e-01     5.17832637e-01     0.00000000e+00    
           5.16296625e-01     5.18545032e-01     0.00000000e+00    
           5.14451027e-01     5.18787980e-01     0.00000000e+00    
           5.12605369e-01     5.18545032e-01     0.00000000e+00    
           5.10885477e-01     5.17832637e-01     0.00000000e+00    
           5.09408593e-01     5.16699374e-01     0.00000000e+00    
           5.08275390e-01     5.15222490e-01     0.00000000e+00    
           5.07562995e-01     5.13502657e-01     0.00000000e+00    
           5.07562995e-01     5.09811342e-01     0.00000000e+00    
           5.08275390e-01     5.08091509e-01     0.00000000e+00    
           5.09408593e-01     5.06614625e-01     0.00000000e+00    
           5.10885477e-01     5.05481362e-01     0.00000000e+00    
           5.12605369e-01     5.04768968e-01     0.00000000e+00    
           5.14451027e-01     5.04526019e-01     0.00000000e+00    
           5.16296625e-01     5.04768968e-01     0.00000000e+00    
           5.18016517e-01     5.05481362e-01     0.00000000e+00    
           5.19493401e-01     5.06614625e-01     0.00000000e+00    
           5.20626605e-01     5.08091509e-01     0.00000000e+00    
           5.21338999e-01     5.09811342e-01     0.00000000e+00    
           4.66931671e-01     5.04409373e-01     0.00000000e+00    
           4.68693614e-01     5.04328012e-01     0.00000000e+00    
           4.70421344e-01     5.04682958e-01     0.00000000e+00    
           4.72008497e-01     5.05452335e-01     0.00000000e+00    
           4.73357379e-01     5.06588817e-01     0.00000000e+00    
           4.74384934e-01     5.08022368e-01     0.00000000e+00    
           4.75027919e-01     5.09664834e-01     0.00000000e+00    
           4.75028187e-01     5.13165236e-01     0.00000000e+00    
           4.74385172e-01     5.14807761e-01     0.00000000e+00    
           4.73357558e-01     5.16241372e-01     0.00000000e+00    
           4.72008646e-01     5.17377913e-01     0.00000000e+00    
           4.70421433e-01     5.18147290e-01     0.00000000e+00    
           4.68693614e-01     5.18502235e-01     0.00000000e+00    
           4.66931641e-01     5.18420875e-01     0.00000000e+00    
           5.32303810e-01     5.16964078e-01     0.00000000e+00    
           5.31043947e-01     5.15658796e-01     0.00000000e+00    
           5.30155540e-01     5.14077127e-01     0.00000000e+00    
           5.29696345e-01     5.12322068e-01     0.00000000e+00    
           5.29696345e-01     5.10507941e-01     0.00000000e+00    
           5.30155540e-01     5.08752882e-01     0.00000000e+00    
           5.31043947e-01     5.07171214e-01     0.00000000e+00    
           5.32303810e-01     5.05865932e-01     0.00000000e+00    
           4.68517244e-01     5.32760799e-01     0.00000000e+00    
           4.68509018e-01     5.30844629e-01     0.00000000e+00    
           4.68960851e-01     5.28982460e-01     0.00000000e+00    
           4.69846308e-01     5.27283132e-01     0.00000000e+00    
           4.71113682e-01     5.25845945e-01     0.00000000e+00    
           4.72688884e-01     5.24754822e-01     0.00000000e+00    
           4.74479854e-01     5.24073541e-01     0.00000000e+00    
           4.78284091e-01     5.24073601e-01     0.00000000e+00    
           4.80075032e-01     5.24754822e-01     0.00000000e+00    
           4.81650203e-01     5.25845885e-01     0.00000000e+00    
           4.82917547e-01     5.27283013e-01     0.00000000e+00    
           4.83803004e-01     5.28982282e-01     0.00000000e+00    
           4.84254897e-01     5.30844331e-01     0.00000000e+00    
           4.84246761e-01     5.32760441e-01     0.00000000e+00    
           4.82887864e-01     4.67691004e-01     0.00000000e+00    
           4.81620818e-01     4.69110936e-01     0.00000000e+00    
           4.80051905e-01     4.70188022e-01     0.00000000e+00    
           4.78271484e-01     4.70860153e-01     0.00000000e+00    
           4.76382166e-01     4.71088618e-01     0.00000000e+00    
           4.74492878e-01     4.70860243e-01     0.00000000e+00    
           4.72712427e-01     4.70188200e-01     0.00000000e+00    
           4.71143454e-01     4.69111174e-01     0.00000000e+00    
           4.69876349e-01     4.67691302e-01     0.00000000e+00    
           4.88103986e-01     5.33086061e-01     0.00000000e+00    
           4.87431526e-01     5.31323195e-01     0.00000000e+00    
           4.87231195e-01     5.29447019e-01     0.00000000e+00    
           4.87516224e-01     5.27581930e-01     0.00000000e+00    
           4.88267750e-01     5.25851250e-01     0.00000000e+00    
           4.89436030e-01     5.24369657e-01     0.00000000e+00    
           4.90943670e-01     5.23235261e-01     0.00000000e+00    
           4.92690891e-01     5.22523046e-01     0.00000000e+00    
           4.96432930e-01     5.22523701e-01     0.00000000e+00    
           4.98180002e-01     5.23235798e-01     0.00000000e+00    
           4.99687493e-01     5.24370134e-01     0.00000000e+00    
           5.00855684e-01     5.25851607e-01     0.00000000e+00    
           5.01607120e-01     5.27582109e-01     0.00000000e+00    
           5.01892149e-01     5.29447079e-01     0.00000000e+00    
           5.01691818e-01     5.31323016e-01     0.00000000e+00    
           5.01019418e-01     5.33085763e-01     0.00000000e+00    
           4.98371124e-01     4.67269689e-01     0.00000000e+00    
           4.96539861e-01     4.68064904e-01     0.00000000e+00    
           4.94562000e-01     4.68336672e-01     0.00000000e+00    
           4.92584139e-01     4.68064904e-01     0.00000000e+00    
           4.90752876e-01     4.67269689e-01     0.00000000e+00    
           5.32269001e-01     4.75995690e-01     0.00000000e+00    
           5.31541944e-01     4.77750987e-01     0.00000000e+00    
           5.30385315e-01     4.79258329e-01     0.00000000e+00    
           5.28877974e-01     4.80414927e-01     0.00000000e+00    
[...]
      <PointData>
        <DataArray type="Float32" Name="Displacement" NumberOfComponents="3">
           6.61789963e-04     1.15439331e-03     0.00000000e+00    
           6.53641182e-04     1.30313600e-03     0.00000000e+00    
           7.03720492e-04     1.23168435e-03     0.00000000e+00    
           6.12785982e-04     1.21083681e-03     0.00000000e+00    
           6.64470135e-04     1.15988217e-03     0.00000000e+00    
           6.12785982e-04     1.21083681e-03     0.00000000e+00    
           7.03720492e-04     1.23168435e-03     0.00000000e+00    
           8.98865401e-04     1.67340937e-03     0.00000000e+00    
           8.94079334e-04     1.72839034e-03     0.00000000e+00    
           8.52529716e-04     1.68180070e-03     0.00000000e+00    
           1.90793617e-05    -2.16097033e-05     0.00000000e+00    
           2.38654138e-05    -7.65905934e-05     0.00000000e+00    
           8.94376426e-04     1.64733909e-03     0.00000000e+00    
           8.90041993e-04     1.70798204e-03     0.00000000e+00    
           8.13890481e-04     1.65681890e-03     0.00000000e+00    
           1.50419683e-05    -4.20179713e-05     0.00000000e+00    
           1.93764390e-05    -1.02660961e-04     0.00000000e+00    
           2.23172028e-04     2.78751570e-04     0.00000000e+00    
           2.12997009e-04     3.45503911e-04     0.00000000e+00    
           8.21353635e-04     1.44678575e-03     0.00000000e+00    
           8.82927445e-04     1.46557123e-03     0.00000000e+00    
           8.50087614e-04     1.54014525e-03     0.00000000e+00    
           8.82927445e-04     1.46557123e-03     0.00000000e+00    
           8.21353635e-04     1.44678575e-03     0.00000000e+00    
           7.25391961e-04     1.31946267e-03     0.00000000e+00    
           7.16538168e-04     1.39007194e-03     0.00000000e+00    
           8.65372538e-04     1.54354866e-03     0.00000000e+00    
           8.64450878e-04     1.62283203e-03     0.00000000e+00    
           3.22019187e-04     5.51513396e-04     0.00000000e+00    
           3.11885262e-04     5.37274813e-04     0.00000000e+00    
           2.59317923e-04     3.70005058e-04     0.00000000e+00    
           2.55150895e-04     3.55278811e-04     0.00000000e+00    
           2.63993104e-04     3.69098823e-04     0.00000000e+00    
           2.55150895e-04     3.55278811e-04     0.00000000e+00    
           2.59317923e-04     3.70005058e-04     0.00000000e+00    
           4.77765920e-04     8.36260617e-04     0.00000000e+00    
           4.71135165e-04     8.96611367e-04     0.00000000e+00    
           2.87513860e-04     4.26047685e-04     0.00000000e+00    
           2.77972227e-04     4.01450059e-04     0.00000000e+00    
           5.01699105e-04     7.68784957e-04     0.00000000e+00    
           4.96196037e-04     8.67623312e-04     0.00000000e+00    
           5.38049499e-04     9.63019615e-04     0.00000000e+00    
           5.30446065e-04     1.13348186e-03     0.00000000e+00    
           5.06673648e-04     8.74430581e-04     0.00000000e+00    
           5.00971684e-04     9.29071917e-04     0.00000000e+00    
           4.00090503e-04     5.53799502e-04     0.00000000e+00    
           3.89435270e-04     6.52806484e-04     0.00000000e+00    
           8.75000027e-04     1.75000005e-03     0.00000000e+00    
           0.00000000e+00     0.00000000e+00     0.00000000e+00    
           0.00000000e+00     0.00000000e+00     0.00000000e+00    
           8.75000027e-04     1.75000005e-03     0.00000000e+00    
           6.81384001e-04     1.16129313e-03     0.00000000e+00    
           7.00206263e-04     1.17121020e-03     0.00000000e+00    
           7.16195093e-04     1.18546002e-03     0.00000000e+00    
           7.27742328e-04     1.20283989e-03     0.00000000e+00    
           7.34410365e-04     1.22205261e-03     0.00000000e+00    
           7.35759910e-04     1.24190561e-03     0.00000000e+00    
           7.32170185e-04     1.26100832e-03     0.00000000e+00    
           7.23846548e-04     1.27804873e-03     0.00000000e+00    
           7.10881606e-04     1.29187841e-03     0.00000000e+00    
           6.93293521e-04     1.30077032e-03     0.00000000e+00    
           6.73725968e-04     1.30444358e-03     0.00000000e+00    
           6.34107739e-04     1.29739323e-03     0.00000000e+00    
           6.15588389e-04     1.28801900e-03     0.00000000e+00    
           5.99522318e-04     1.27454044e-03     0.00000000e+00    
           5.87197137e-04     1.25800783e-03     0.00000000e+00    
           5.79605578e-04     1.23926927e-03     0.00000000e+00    
           5.77119878e-04     1.21980754e-03     0.00000000e+00    
           5.80188993e-04     1.20061263e-03     0.00000000e+00    
           5.88923343e-04     1.18238071e-03     0.00000000e+00    
           6.03201508e-04     1.16725871e-03     0.00000000e+00    
           6.20033126e-04     1.15693011e-03     0.00000000e+00    
           6.40231068e-04     1.15272915e-03     0.00000000e+00    
           6.10606046e-04     1.19929085e-03     0.00000000e+00    
           6.11326948e-04     1.18789868e-03     0.00000000e+00    
           6.14643912e-04     1.17734889e-03     0.00000000e+00    
           6.20620500e-04     1.16834638e-03     0.00000000e+00    
           6.29347749e-04     1.16167148e-03     0.00000000e+00    
           6.40532118e-04     1.15773454e-03     0.00000000e+00    
           6.52696937e-04     1.15768216e-03     0.00000000e+00    
           6.75166957e-04     1.16430433e-03     0.00000000e+00    
           6.85451785e-04     1.17020507e-03     0.00000000e+00    
           6.94462156e-04     1.17819651e-03     0.00000000e+00    
           7.01599056e-04     1.18765549e-03     0.00000000e+00    
           7.06353865e-04     1.19849655e-03     0.00000000e+00    
           7.08424777e-04     1.20994681e-03     0.00000000e+00    
           7.07444560e-04     1.22136215e-03     0.00000000e+00    
           6.96695060e-04     1.24077243e-03     0.00000000e+00    
           6.86596497e-04     1.24732754e-03     0.00000000e+00    
           6.74267067e-04     1.25005271e-03     0.00000000e+00    
           6.61272556e-04     1.24923105e-03     0.00000000e+00    
           6.49428868e-04     1.24501425e-03     0.00000000e+00    
           6.37482037e-04     1.23947428e-03     0.00000000e+00    
           6.26658206e-04     1.23206945e-03     0.00000000e+00    
           6.18222810e-04     1.22222793e-03     0.00000000e+00    
           8.84738576e-04     1.72576448e-03     0.00000000e+00    
           8.77184968e-04     1.72138505e-03     0.00000000e+00    
           8.70774791e-04     1.71642855e-03     0.00000000e+00    
           8.64481262e-04     1.71074050e-03     0.00000000e+00    
           8.59049091e-04     1.70427677e-03     0.00000000e+00    
           8.55093880e-04     1.69717113e-03     0.00000000e+00    
           8.52756668e-04     1.68945757e-03     0.00000000e+00    
           8.54244048e-04     1.67468598e-03     0.00000000e+00    
           8.57826148e-04     1.66891026e-03     0.00000000e+00    
           8.62608955e-04     1.66455552e-03     0.00000000e+00    
           8.68410221e-04     1.66174234e-03     0.00000000e+00    
           8.75010621e-04     1.66216271e-03     0.00000000e+00    
           8.82141292e-04     1.66538020e-03     0.00000000e+00    
           8.90280062e-04     1.66887860e-03     0.00000000e+00    
           3.19392057e-05    -7.12829642e-05     0.00000000e+00    
           3.82438557e-05    -6.47027409e-05     0.00000000e+00    
           4.27388186e-05    -5.73711623e-05     0.00000000e+00    
           4.50109619e-05    -4.95415152e-05     0.00000000e+00    
           4.51170345e-05    -4.20679862e-05     0.00000000e+00    
           4.33296118e-05    -3.52435527e-05     0.00000000e+00    
           3.99124401e-05    -2.93858357e-05     0.00000000e+00    
           3.50504415e-05    -2.48317774e-05     0.00000000e+00    
           2.77656764e-05    -2.21722603e-05     0.00000000e+00    
           8.80571606e-04     1.71089126e-03     0.00000000e+00    
           8.70492309e-04     1.71026227e-03     0.00000000e+00    
           8.59546242e-04     1.70756492e-03     0.00000000e+00    
           8.47339164e-04     1.70290365e-03     0.00000000e+00    
           8.35051178e-04     1.69710338e-03     0.00000000e+00    
           8.25176248e-04     1.68880052e-03     0.00000000e+00    
           8.18284578e-04     1.67873199e-03     0.00000000e+00    
           8.14506144e-04     1.66779826e-03     0.00000000e+00    
           8.16197367e-04     1.64652232e-03     0.00000000e+00    
           8.21629830e-04     1.63772935e-03     0.00000000e+00    
           8.29483266e-04     1.63137587e-03     0.00000000e+00    
           8.39055574e-04     1.62745686e-03     0.00000000e+00    
           8.49755248e-04     1.62653043e-03     0.00000000e+00    
           8.61546723e-04     1.62798213e-03     0.00000000e+00    
           8.73709214e-04     1.63241499e-03     0.00000000e+00    
           8.84980778e-04     1.63881050e-03     0.00000000e+00    
           2.67011819e-05    -9.20835009e-05     0.00000000e+00    
           3.07815608e-05    -8.05080272e-05     0.00000000e+00    
           3.15474099e-05    -6.88910441e-05     0.00000000e+00    
           2.89672280e-05    -5.79720654e-05     0.00000000e+00    
           2.32841976e-05    -4.86958379e-05     0.00000000e+00    
           2.32274600e-04     2.82598136e-04     0.00000000e+00    
           2.40071007e-04     2.87988601e-04     0.00000000e+00    
           2.46164331e-04     2.94992351e-04     0.00000000e+00    
           2.51317630e-04     3.03267938e-04     0.00000000e+00    
           2.54726823e-04     3.12802906e-04     0.00000000e+00    
           2.55279767e-04     3.22451320e-04     0.00000000e+00    
           2.53636215e-04     3.31642310e-04     0.00000000e+00    
           2.49122008e-04     3.39522638e-04     0.00000000e+00    
           2.42546565e-04     3.45683162e-04     0.00000000e+00    
           2.33699102e-04     3.49239737e-04     0.00000000e+00    
           2.22984556e-04     3.49298964e-04     0.00000000e+00    
           2.03238582e-04     3.40977364e-04     0.00000000e+00    
           1.94846900e-04     3.34659795e-04     0.00000000e+00    
           1.87569516e-04     3.27240530e-04     0.00000000e+00    
           1.82213131e-04     3.18647537e-04     0.00000000e+00    
           1.79307739e-04     3.09401075e-04     0.00000000e+00    
           1.78952134e-04     3.00153944e-04     0.00000000e+00    
           1.80862437e-04     2.91456527e-04     0.00000000e+00    
           1.85018755e-04     2.84201000e-04     0.00000000e+00    
           1.92057239e-04     2.78441526e-04     0.00000000e+00    
           2.02021809e-04     2.75471655e-04     0.00000000e+00    
           2.13124600e-04     2.75675324e-04     0.00000000e+00    
           8.91167438e-04     1.47538225e-03     0.00000000e+00    
           8.96955549e-04     1.48666208e-03     0.00000000e+00    
           8.99977400e-04     1.49849546e-03     0.00000000e+00    
           9.00319486e-04     1.51025911e-03     0.00000000e+00    
           8.97777034e-04     1.52116106e-03     0.00000000e+00    
           8.92119773e-04     1.53068081e-03     0.00000000e+00    
           8.83526111e-04     1.53764361e-03     0.00000000e+00    
           8.73806712e-04     1.54127704e-03     0.00000000e+00    
           8.62954359e-04     1.54196681e-03     0.00000000e+00    
           8.36030522e-04     1.53552613e-03     0.00000000e+00    
           8.22586473e-04     1.52878184e-03     0.00000000e+00    
           8.11831094e-04     1.51958433e-03     0.00000000e+00    
           8.03742383e-04     1.50873757e-03     0.00000000e+00    
           7.98954628e-04     1.49678194e-03     0.00000000e+00    
           7.97358225e-04     1.48449570e-03     0.00000000e+00    
           7.99030531e-04     1.47259107e-03     0.00000000e+00    
           8.03538423e-04     1.46184710e-03     0.00000000e+00    
           8.11088074e-04     1.45305006e-03     0.00000000e+00    
           8.32392427e-04     1.44406699e-03     0.00000000e+00    
           8.43920279e-04     1.44471612e-03     0.00000000e+00    
           8.54890444e-04     1.44771254e-03     0.00000000e+00    
           8.64713220e-04     1.45263423e-03     0.00000000e+00    
           8.74187332e-04     1.45830214e-03     0.00000000e+00    
           7.34642090e-04     1.32417202e-03     0.00000000e+00    
           7.43375043e-04     1.32992596e-03     0.00000000e+00    
           7.51580053e-04     1.33671460e-03     0.00000000e+00    
           7.57522881e-04     1.34504144e-03     0.00000000e+00    
           7.61068775e-04     1.35421578e-03     0.00000000e+00    
           7.61999167e-04     1.36367662e-03     0.00000000e+00    
           7.60590308e-04     1.37251709e-03     0.00000000e+00    
           7.57173577e-04     1.38053449e-03     0.00000000e+00    
           7.51805725e-04     1.38707855e-03     0.00000000e+00    
           7.44953286e-04     1.39207789e-03     0.00000000e+00    
           7.35741691e-04     1.39434042e-03     0.00000000e+00    
           7.26063095e-04     1.39284832e-03     0.00000000e+00    
           7.07858941e-04     1.38542394e-03     0.00000000e+00    
           6.99754164e-04     1.37988292e-03     0.00000000e+00    
           6.92590256e-04     1.37303374e-03     0.00000000e+00    
           6.86999643e-04     1.36510551e-03     0.00000000e+00    
           6.83175051e-04     1.35635282e-03     0.00000000e+00    
           6.81491685e-04     1.34719745e-03     0.00000000e+00    
           6.82195008e-04     1.33841462e-03     0.00000000e+00    
           6.84752304e-04     1.33036694e-03     0.00000000e+00    
           6.89440989e-04     1.32366025e-03     0.00000000e+00    
           6.96191215e-04     1.31851959e-03     0.00000000e+00    
           7.05335522e-04     1.31594518e-03     0.00000000e+00    
           7.15461792e-04     1.31651596e-03     0.00000000e+00    
           8.78502149e-04     1.54826324e-03     0.00000000e+00    
           8.90974712e-04     1.55563792e-03     0.00000000e+00    
           9.00797546e-04     1.56538386e-03     0.00000000e+00    
           9.07168374e-04     1.57665450e-03     0.00000000e+00    
           9.09899594e-04     1.58860895e-03     0.00000000e+00    
           9.08971357e-04     1.60023407e-03     0.00000000e+00    
           9.04772372e-04     1.61059271e-03     0.00000000e+00    
           8.97403457e-04     1.61865877e-03     0.00000000e+00    
           8.87577073e-04     1.62346824e-03     0.00000000e+00    
           8.76531471e-04     1.62446161e-03     0.00000000e+00    
           8.52030353e-04     1.61786575e-03     0.00000000e+00    
           8.40760476e-04     1.61029026e-03     0.00000000e+00    
           8.31775309e-04     1.60043081e-03     0.00000000e+00    
           8.25922703e-04     1.58900395e-03     0.00000000e+00    
           8.23136768e-04     1.57707033e-03     0.00000000e+00    
           8.23923969e-04     1.56564731e-03     0.00000000e+00    
           8.27548618e-04     1.55547308e-03     0.00000000e+00    
           8.34139239e-04     1.54746661e-03     0.00000000e+00    
           8.43001297e-04     1.54306844e-03     0.00000000e+00    
           8.53177509e-04     1.54185586e-03     0.00000000e+00    
           3.21941858e-04     5.54302591e-04     0.00000000e+00    
           3.21048865e-04     5.56103885e-04     0.00000000e+00    
           3.19604907e-04     5.57211926e-04     0.00000000e+00    
           3.18249076e-04     5.57509135e-04     0.00000000e+00    
           3.16946243e-04     5.56936138e-04     0.00000000e+00    
           3.15981481e-04     5.55771170e-04     0.00000000e+00    
           3.15287762e-04     5.54028549e-04     0.00000000e+00    
           3.14962585e-04     5.51916892e-04     0.00000000e+00    
           3.13406810e-04     5.49366348e-04     0.00000000e+00    
           3.11983516e-04     5.45731280e-04     0.00000000e+00    
           3.11162672e-04     5.41377813e-04     0.00000000e+00    
           3.13004508e-04     5.35002328e-04     0.00000000e+00    
           3.14277800e-04     5.33370185e-04     0.00000000e+00    
           3.16084566e-04     5.32718259e-04     0.00000000e+00    
           3.17335303e-04     5.32767037e-04     0.00000000e+00    
           3.18301783e-04     5.33479790e-04     0.00000000e+00    
           3.18816717e-04     5.34690218e-04     0.00000000e+00    
           3.19262530e-04     5.36248554e-04     0.00000000e+00    
           3.19517072e-04     5.38120687e-04     0.00000000e+00    
           3.20248859e-04     5.40518959e-04     0.00000000e+00    
           3.21383588e-04     5.43477130e-04     0.00000000e+00    
           3.22253996e-04     5.47403004e-04     0.00000000e+00    
           2.56196974e-04     3.54019750e-04     0.00000000e+00    
           2.57237785e-04     3.53166251e-04     0.00000000e+00    
           2.58281798e-04     3.53030337e-04     0.00000000e+00    
           2.59218010e-04     3.53431329e-04     0.00000000e+00    
           2.60182773e-04     3.54444754e-04     0.00000000e+00    
           2.61300273e-04     3.55924160e-04     0.00000000e+00    
           2.62807764e-04     3.58090125e-04     0.00000000e+00    
           2.64033617e-04     3.61920131e-04     0.00000000e+00    
           2.64290487e-04     3.66018852e-04     0.00000000e+00    
           2.63505848e-04     3.71238042e-04     0.00000000e+00    
           2.62972579e-04     3.73174378e-04     0.00000000e+00    
           2.62871938e-04     3.74974246e-04     0.00000000e+00    
           2.62609537e-04     3.75883421e-04     0.00000000e+00    
           2.62473972e-04     3.76227370e-04     0.00000000e+00    
           2.62007408e-04     3.76007898e-04     0.00000000e+00    
           2.61546462e-04     3.75225209e-04     0.00000000e+00    
           2.61119887e-04     3.74020892e-04     0.00000000e+00    
           2.60690023e-04     3.72182636e-04     0.00000000e+00    
           2.57668115e-04     3.66682914e-04     0.00000000e+00    
           2.56455969e-04     3.62327788e-04     0.00000000e+00    
           2.55858293e-04     3.59123427e-04     0.00000000e+00    
           2.55089457e-04     3.57256329e-04     0.00000000e+00    
           4.85120720e-04     8.40808265e-04     0.00000000e+00    
           4.92237450e-04     8.45938863e-04     0.00000000e+00    
           4.98303387e-04     8.52192694e-04     0.00000000e+00    
           5.03597257e-04     8.59886757e-04     0.00000000e+00    
           5.06765791e-04     8.68426985e-04     0.00000000e+00    
           5.07593737e-04     8.76861217e-04     0.00000000e+00    
           5.06185694e-04     8.84648704e-04     0.00000000e+00    
           5.03041141e-04     8.91282805e-04     0.00000000e+00    
           4.98327194e-04     8.96215381e-04     0.00000000e+00    
           4.91258979e-04     8.98882747e-04     0.00000000e+00    
           4.81741852e-04     8.98898405e-04     0.00000000e+00    
           4.61333286e-04     8.92068609e-04     0.00000000e+00    
           4.53185086e-04     8.85667570e-04     0.00000000e+00    
           4.46953985e-04     8.78272287e-04     0.00000000e+00    
           4.42236400e-04     8.70219956e-04     0.00000000e+00    
           4.39646217e-04     8.61775887e-04     0.00000000e+00    
           4.39156051e-04     8.53193924e-04     0.00000000e+00    
           4.40952252e-04     8.45282688e-04     0.00000000e+00    
           4.45285143e-04     8.38486420e-04     0.00000000e+00    
           4.51886444e-04     8.33716302e-04     0.00000000e+00    