<?xml version="1.0"?>
<VTKFile type="UnstructuredGrid" version="0.1">
  <UnstructuredGrid>
    <Piece NumberOfPoints="1034" NumberOfCells="1614">
      <Points>
        <DataArray type="Float32" NumberOfComponents="3">
           5.21582007e-01     5.11657000e-01     0.00000000e+00    
           5.07319987e-01     5.11657000e-01     0.00000000e+00    
           4.65243995e-01     5.17907977e-01     0.00000000e+00    
           4.65243995e-01     5.04921973e-01     0.00000000e+00    
           4.75246996e-01     5.11415005e-01     0.00000000e+00    
           5.33852994e-01     5.04921973e-01     0.00000000e+00    
           5.33852994e-01     5.17907977e-01     0.00000000e+00    
           4.83779997e-01     5.34618974e-01     0.00000000e+00    
           4.68984991e-01     5.34618974e-01     0.00000000e+00    
           4.76381987e-01     5.23841977e-01     0.00000000e+00    
           4.68984991e-01     4.66010004e-01     0.00000000e+00    
           4.83779997e-01     4.66010004e-01     0.00000000e+00    
           4.99920011e-01     5.34618974e-01     0.00000000e+00    
           4.89203990e-01     5.34618974e-01     0.00000000e+00    
           4.94562000e-01     5.22280991e-01     0.00000000e+00    
           4.89203990e-01     4.66010004e-01     0.00000000e+00    
           4.99920011e-01     4.66010004e-01     0.00000000e+00    
           5.32517016e-01     4.74112004e-01     0.00000000e+00    
           5.17961025e-01     4.74112004e-01     0.00000000e+00    
           5.33852994e-01     5.19801974e-01     0.00000000e+00    
           5.33852994e-01     5.29603004e-01     0.00000000e+00    
           5.19536972e-01     5.24702013e-01     0.00000000e+00    
           4.65243995e-01     5.29603004e-01     0.00000000e+00    
           4.65243995e-01     5.19801974e-01     0.00000000e+00    
           4.92487997e-01     5.17117977e-01     0.00000000e+00    
           4.76904988e-01     5.17117977e-01     0.00000000e+00    
           5.17996013e-01     5.27033985e-01     0.00000000e+00    
           5.04473984e-01     5.27033985e-01     0.00000000e+00    
           5.08446991e-01     4.83435005e-01     0.00000000e+00    
           4.94414002e-01     4.83435005e-01     0.00000000e+00    
           4.65243995e-01     4.83101994e-01     0.00000000e+00    
           4.65243995e-01     4.74415004e-01     0.00000000e+00    
           4.78336990e-01     4.78758007e-01     0.00000000e+00    
           5.33852994e-01     4.74415004e-01     0.00000000e+00    
           5.33852994e-01     4.83101994e-01     0.00000000e+00    
           4.80668008e-01     4.95810986e-01     0.00000000e+00    
           4.66084987e-01     4.95810986e-01     0.00000000e+00    
           4.93930012e-01     4.79214013e-01     0.00000000e+00    
           4.78967011e-01     4.79214013e-01     0.00000000e+00    
           5.09284973e-01     4.97658014e-01     0.00000000e+00    
           4.95503992e-01     4.97658014e-01     0.00000000e+00    
           5.33011973e-01     5.01751006e-01     0.00000000e+00    
           5.17829001e-01     5.01751006e-01     0.00000000e+00    
           4.95451003e-01     5.00564992e-01     0.00000000e+00    
           4.80922014e-01     5.00564992e-01     0.00000000e+00    
           5.25367022e-01     4.88312006e-01     0.00000000e+00    
           5.09521008e-01     4.88312006e-01     0.00000000e+00    
           4.65243995e-01     5.34618974e-01     0.00000000e+00    
           4.65243995e-01     4.66010004e-01     0.00000000e+00    
           5.33852994e-01     4.66010004e-01     0.00000000e+00    
           5.33852994e-01     5.34618974e-01     0.00000000e+00    
           5.21338999e-01     5.13502657e-01     0.00000000e+00    
           5.20626605e-01     5.15222490e-01     0.00000000e+00    
           5.19493401e-01     5.16699374e-01     0.00000000e+00    
           5.18016517e-01     5.17832637e-01     0.00000000e+00    
           5.16296625e-01     5.18545032e-01     0.00000000e+00    
           5.14451027e-01     5.18787980e-01     0.00000000e+00    
           5.12605369e-01     5.18545032e-01     0.00000000e+00    
           5.10885477e-01     5.17832637e-01     0.00000000e+00    
           5.09408593e-01     5.16699374e-01     0.00000000e+00    
           5.08275390e-01     5.15222490e-01     0.00000000e+00    
           5.07562995e-01     5.13502657e-01     0.00000000e+00    
           5.07562995e-01     5.09811342e-01     0.00000000e+00    
           5.08275390e-01     5.08091509e-01     0.00000000e+00    
           5.09408593e-01     5.06614625e-01     0.00000000e+00    
           5.10885477e-01     5.05481362e-01     0.00000000e+00    
           5.12605369e-01     5.04768968e-01     0.00000000e+00    
           5.14451027e-01     5.04526019e-01     0.00000000e+00    
           5.16296625e-01     5.04768968e-01     0.00000000e+00    
           5.18016517e-01     5.05481362e-01     0.00000000e+00    
           5.19493401e-01     5.06614625e-01     0.00000000e+00    
           5.20626605e-01     5.08091509e-01     0.00000000e+00    
           5.21338999e-01     5.09811342e-01     0.00000000e+00    
           4.66931671e-01     5.04409373e-01     0.00000000e+00    
           4.68693614e-01     5.04328012e-01     0.00000000e+00    
           4.70421344e-01     5.04682958e-01     0.00000000e+00    
           4.72008497e-01     5.05452335e-01     0.00000000e+00    
           4.73357379e-01     5.06588817e-01     0.00000000e+00    
           4.74384934e-01     5.08022368e-01     0.00000000e+00    
           4.75027919e-01     5.09664834e-01     0.00000000e+00    
           4.75028187e-01     5.13165236e-01     0.00000000e+00    
           4.74385172e-01     5.14807761e-01     0.00000000e+00    
           4.73357558e-01     5.16241372e-01     0.00000000e+00    
           4.72008646e-01     5.17377913e-01     0.00000000e+00    
           4.70421433e-01     5.18147290e-01     0.00000000e+00    
           4.68693614e-01     5.18502235e-01     0.00000000e+00    
           4.66931641e-01     5.18420875e-01     0.00000000e+00    
           5.32303810e-01     5.16964078e-01     0.00000000e+00    
           5.31043947e-01     5.15658796e-01     0.00000000e+00    
           5.30155540e-01     5.14077127e-01     0.00000000e+00    
           5.29696345e-01     5.12322068e-01     0.00000000e+00    
           5.29696345e-01     5.10507941e-01     0.00000000e+00    
           5.30155540e-01     5.08752882e-01     0.00000000e+00    
           5.31043947e-01     5.07171214e-01     0.00000000e+00    
           5.32303810e-01     5.05865932e-01     0.00000000e+00    
           4.68517244e-01     5.32760799e-01     0.00000000e+00    
           4.68509018e-01     5.30844629e-01     0.00000000e+00    
           4.68960851e-01     5.28982460e-01     0.00000000e+00    
           4.69846308e-01     5.27283132e-01     0.00000000e+00    
           4.71113682e-01     5.25845945e-01     0.00000000e+00    
           4.72688884e-01     5.24754822e-01     0.00000000e+00    
           4.74479854e-01     5.24073541e-01     0.00000000e+00    
           4.78284091e-01     5.24073601e-01     0.00000000e+00    
           4.80075032e-01     5.24754822e-01     0.00000000e+00    
           4.81650203e-01     5.25845885e-01     0.00000000e+00    
           4.82917547e-01     5.27283013e-01     0.00000000e+00    
           4.83803004e-01     5.28982282e-01     0.00000000e+00    
           4.84254897e-01     5.30844331e-01     0.00000000e+00    
           4.84246761e-01     5.32760441e-01     0.00000000e+00    
           4.82887864e-01     4.67691004e-01     0.00000000e+00    
           4.81620818e-01     4.69110936e-01     0.00000000e+00    
           4.80051905e-01     4.70188022e-01     0.00000000e+00    
           4.78271484e-01     4.70860153e-01     0.00000000e+00    
           4.76382166e-01     4.71088618e-01     0.00000000e+00    
           4.74492878e-01     4.70860243e-01     0.00000000e+00    
           4.72712427e-01     4.70188200e-01     0.00000000e+00    
           4.71143454e-01     4.69111174e-01     0.00000000e+00    
           4.69876349e-01     4.67691302e-01     0.00000000e+00    
           4.88103986e-01     5.33086061e-01     0.00000000e+00    
           4.87431526e-01     5.31323195e-01     0.00000000e+00    
           4.87231195e-01     5.29447019e-01     0.00000000e+00    
           4.87516224e-01     5.27581930e-01     0.00000000e+00    
           4.88267750e-01     5.25851250e-01     0.00000000e+00    
           4.89436030e-01     5.24369657e-01     0.00000000e+00    
           4.90943670e-01     5.23235261e-01     0.00000000e+00    
           4.92690891e-01     5.22523046e-01     0.00000000e+00    
           4.96432930e-01     5.22523701e-01     0.00000000e+00    
           4.98180002e-01     5.23235798e-01     0.00000000e+00    
           4.99687493e-01     5.24370134e-01     0.00000000e+00    
           5.00855684e-01     5.25851607e-01     0.00000000e+00    
           5.01607120e-01     5.27582109e-01     0.00000000e+00    
           5.01892149e-01     5.29447079e-01     0.00000000e+00    
           5.01691818e-01     5.31323016e-01     0.00000000e+00    
           5.01019418e-01     5.33085763e-01     0.00000000e+00    
           4.98371124e-01     4.67269689e-01     0.00000000e+00    
           4.96539861e-01     4.68064904e-01     0.00000000e+00    
           4.94562000e-01     4.68336672e-01     0.00000000e+00    
           4.92584139e-01     4.68064904e-01     0.00000000e+00    
           4.90752876e-01     4.67269689e-01     0.00000000e+00    
           5.32269001e-01     4.75995690e-01     0.00000000e+00    
           5.31541944e-01     4.77750987e-01     0.00000000e+00    
           5.30385315e-01     4.79258329e-01     0.00000000e+00    
           5.28877974e-01     4.80414927e-01     0.00000000e+00    
[...]
      <PointData>
        <DataArray type="Float32" Name="Displacement" NumberOfComponents="3">
           6.24113251e-04     1.09034684e-03     0.00000000e+00    
           6.16283098e-04     1.22876442e-03     0.00000000e+00    
           6.62563078e-04     1.16208522e-03     0.00000000e+00    
           5.76795661e-04     1.14121940e-03     0.00000000e+00    
           6.25714485e-04     1.09437783e-03     0.00000000e+00    
           5.76795661e-04     1.14121940e-03     0.00000000e+00    
           6.62563078e-04     1.16208522e-03     0.00000000e+00    
           8.47829971e-04     1.57613517e-03     0.00000000e+00    
           8.43303569e-04     1.63027644e-03     0.00000000e+00    
           8.02172697e-04     1.58418796e-03     0.00000000e+00    
           1.83035791e-05    -1.97235477e-05     0.00000000e+00    
           2.28299450e-05    -7.38648450e-05     0.00000000e+00    
           8.41554196e-04     1.55274745e-03     0.00000000e+00    
           8.37430882e-04     1.60987023e-03     0.00000000e+00    
           7.65196863e-04     1.56059547e-03     0.00000000e+00    
           1.24308563e-05    -4.01297366e-05     0.00000000e+00    
           1.65541987e-05    -9.72526032e-05     0.00000000e+00    
           2.06706420e-04     2.55721476e-04     0.00000000e+00    
           1.96955734e-04     3.21956642e-04     0.00000000e+00    
           7.72957166e-04     1.36381539e-03     0.00000000e+00    
           8.30858247e-04     1.38262217e-03     0.00000000e+00    
           8.00134381e-04     1.45180349e-03     0.00000000e+00    
           8.30858247e-04     1.38262217e-03     0.00000000e+00    
           7.72957166e-04     1.36381539e-03     0.00000000e+00    
           6.83661725e-04     1.24655524e-03     0.00000000e+00    
           6.75160205e-04     1.31369301e-03     0.00000000e+00    
           8.15204694e-04     1.45452307e-03     0.00000000e+00    
           8.14494619e-04     1.52934063e-03     0.00000000e+00    
           3.01769964e-04     5.19268680e-04     0.00000000e+00    
           2.91941833e-04     5.05076197e-04     0.00000000e+00    
           2.42267590e-04     3.43494030e-04     0.00000000e+00    
           2.36958978e-04     3.28822964e-04     0.00000000e+00    
           2.45959440e-04     3.40892904e-04     0.00000000e+00    
           2.36958978e-04     3.28822964e-04     0.00000000e+00    
           2.42267590e-04     3.43494030e-04     0.00000000e+00    
           4.49461222e-04     7.86775141e-04     0.00000000e+00    
           4.43278142e-04     8.44280352e-04     0.00000000e+00    
           2.68326083e-04     3.95859883e-04     0.00000000e+00    
           2.59197259e-04     3.72700888e-04     0.00000000e+00    
           4.72278363e-04     7.24330894e-04     0.00000000e+00    
           4.66887199e-04     8.17709137e-04     0.00000000e+00    
           5.07453689e-04     9.08732822e-04     0.00000000e+00    
           5.00048511e-04     1.06780569e-03     0.00000000e+00    
           4.76623682e-04     8.24661867e-04     0.00000000e+00    
           4.71201725e-04     8.76893464e-04     0.00000000e+00    
           3.77504068e-04     5.21550246e-04     0.00000000e+00    
           3.67201661e-04     6.16858306e-04     0.00000000e+00    
           8.24999996e-04     1.64999999e-03     0.00000000e+00    
           0.00000000e+00     0.00000000e+00     0.00000000e+00    
           0.00000000e+00     0.00000000e+00     0.00000000e+00    
           8.24999996e-04     1.64999999e-03     0.00000000e+00    
           6.42483123e-04     1.09706155e-03     0.00000000e+00    
           6.60090824e-04     1.10650319e-03     0.00000000e+00    
           6.75025862e-04     1.11994322e-03     0.00000000e+00    
           6.85764709e-04     1.13626861e-03     0.00000000e+00    
           6.91911671e-04     1.15424686e-03     0.00000000e+00    
           6.93082460e-04     1.17275305e-03     0.00000000e+00    
           6.89691282e-04     1.19049905e-03     0.00000000e+00    
           6.81923237e-04     1.20626891e-03     0.00000000e+00    
           6.69805740e-04     1.21899915e-03     0.00000000e+00    
           6.53350609e-04     1.22702401e-03     0.00000000e+00    
           6.35062752e-04     1.23020622e-03     0.00000000e+00    
           5.98014565e-04     1.22320012e-03     0.00000000e+00    
           5.80697670e-04     1.21435267e-03     0.00000000e+00    
           5.65664901e-04     1.20169937e-03     0.00000000e+00    
           5.54130354e-04     1.18624524e-03     0.00000000e+00    
           5.47026226e-04     1.16876571e-03     0.00000000e+00    
           5.44695591e-04     1.15066953e-03     0.00000000e+00    
           5.47558884e-04     1.13285298e-03     0.00000000e+00    
           5.55727456e-04     1.11586088e-03     0.00000000e+00    
           5.69146010e-04     1.10176799e-03     0.00000000e+00    
           5.84912894e-04     1.09223463e-03     0.00000000e+00    
           6.03863096e-04     1.08853320e-03     0.00000000e+00    
           5.74834645e-04     1.13034691e-03     0.00000000e+00    
           5.75606304e-04     1.11966929e-03     0.00000000e+00    
           5.78773906e-04     1.10983406e-03     0.00000000e+00    
           5.84417314e-04     1.10148918e-03     0.00000000e+00    
           5.92665630e-04     1.09538354e-03     0.00000000e+00    
           6.03213150e-04     1.09190447e-03     0.00000000e+00    
           6.14655379e-04     1.09211309e-03     0.00000000e+00    
           6.35737961e-04     1.09868450e-03     0.00000000e+00    
           6.45374588e-04     1.10430387e-03     0.00000000e+00    
           6.53820811e-04     1.11185305e-03     0.00000000e+00    
           6.60544203e-04     1.12074392e-03     0.00000000e+00    
           6.65043248e-04     1.13094237e-03     0.00000000e+00    
           6.67011482e-04     1.14170427e-03     0.00000000e+00    
           6.66061300e-04     1.15242624e-03     0.00000000e+00    
           6.55950280e-04     1.17055583e-03     0.00000000e+00    
           6.46442524e-04     1.17661105e-03     0.00000000e+00    
           6.34778175e-04     1.17896951e-03     0.00000000e+00    
           6.22481166e-04     1.17797067e-03     0.00000000e+00    
           6.11300406e-04     1.17375527e-03     0.00000000e+00    
           6.00022729e-04     1.16838212e-03     0.00000000e+00    
           5.89795643e-04     1.16132619e-03     0.00000000e+00    
           5.81866072e-04     1.15198374e-03     0.00000000e+00    
           8.34089413e-04     1.62764417e-03     0.00000000e+00    
           8.26608157e-04     1.62330712e-03     0.00000000e+00    
           8.20263289e-04     1.61838834e-03     0.00000000e+00    
           8.14063707e-04     1.61276816e-03     0.00000000e+00    
           8.08710523e-04     1.60639116e-03     0.00000000e+00    
           8.04769632e-04     1.59938366e-03     0.00000000e+00    
           8.02417169e-04     1.59176381e-03     0.00000000e+00    
           8.03858740e-04     1.57716242e-03     0.00000000e+00    
           8.07371631e-04     1.57146959e-03     0.00000000e+00    
           8.12063867e-04     1.56718888e-03     0.00000000e+00    
           8.17774213e-04     1.56444102e-03     0.00000000e+00    
           8.24257149e-04     1.56490982e-03     0.00000000e+00    
           8.31275014e-04     1.56811241e-03     0.00000000e+00    
           8.39319313e-04     1.57160347e-03     0.00000000e+00    
           3.08479939e-05    -6.85818886e-05     0.00000000e+00    
           3.71283386e-05    -6.20482460e-05     0.00000000e+00    
           4.15913892e-05    -5.47831769e-05     0.00000000e+00    
           4.38347670e-05    -4.70366213e-05     0.00000000e+00    
           4.39306277e-05    -3.96567411e-05     0.00000000e+00    
           4.21607583e-05    -3.29384347e-05     0.00000000e+00    
           3.88028166e-05    -2.71962017e-05     0.00000000e+00    
           3.40316437e-05    -2.27575274e-05     0.00000000e+00    
           2.68597141e-05    -2.01984003e-05     0.00000000e+00    
           8.28491233e-04     1.61242392e-03     0.00000000e+00    
           8.18964792e-04     1.61161646e-03     0.00000000e+00    
           8.08566459e-04     1.60887884e-03     0.00000000e+00    
           7.96920911e-04     1.60428858e-03     0.00000000e+00    
           7.85221404e-04     1.59870333e-03     0.00000000e+00    
           7.75815046e-04     1.59079558e-03     0.00000000e+00    
           7.69289327e-04     1.58124010e-03     0.00000000e+00    
           7.65729754e-04     1.57092372e-03     0.00000000e+00    
           7.67455553e-04     1.55096164e-03     0.00000000e+00    
           7.72654545e-04     1.54284120e-03     0.00000000e+00    
           7.80092552e-04     1.53701100e-03     0.00000000e+00    
           7.89138838e-04     1.53343868e-03     0.00000000e+00    
           7.99252419e-04     1.53263821e-03     0.00000000e+00    
           8.10420141e-04     1.53407338e-03     0.00000000e+00    
           8.21938505e-04     1.53834687e-03     0.00000000e+00    
           8.32636084e-04     1.54453248e-03     0.00000000e+00    
           2.34790787e-05    -8.71760785e-05     0.00000000e+00    
           2.73512742e-05    -7.61988704e-05     0.00000000e+00    
           2.80624208e-05    -6.52257586e-05     0.00000000e+00    
           2.56068379e-05    -5.49538017e-05     0.00000000e+00    
           2.02225947e-05    -4.62885910e-05     0.00000000e+00    
           2.15733657e-04     2.59532710e-04     0.00000000e+00    
           2.23442461e-04     2.64839648e-04     0.00000000e+00    
           2.29495228e-04     2.71734840e-04     0.00000000e+00    
           2.34676598e-04     2.79959087e-04     0.00000000e+00    
           2.38110282e-04     2.89465446e-04     0.00000000e+00    
           2.38671826e-04     2.99085135e-04     0.00000000e+00    
           2.37074782e-04     3.08235380e-04     0.00000000e+00    
           2.32638966e-04     3.16063437e-04     0.00000000e+00    
           2.26193093e-04     3.22175765e-04     0.00000000e+00    
           2.17468245e-04     3.25687201e-04     0.00000000e+00    
           2.06888813e-04     3.25730303e-04     0.00000000e+00    
           1.87224112e-04     3.17397527e-04     0.00000000e+00    
           1.78866467e-04     3.11049080e-04     0.00000000e+00    
           1.71632812e-04     3.03635228e-04     0.00000000e+00    
           1.66298109e-04     2.95083213e-04     0.00000000e+00    
           1.63404096e-04     2.85894668e-04     0.00000000e+00    
           1.63043049e-04     2.76726205e-04     0.00000000e+00    
           1.64915633e-04     2.68124277e-04     0.00000000e+00    
           1.68988568e-04     2.60972447e-04     0.00000000e+00    
           1.75939160e-04     2.55312014e-04     0.00000000e+00    
           1.85765050e-04     2.52437603e-04     0.00000000e+00    
           1.96726760e-04     2.52665603e-04     0.00000000e+00    
           8.38572741e-04     1.39190687e-03     0.00000000e+00    
           8.44008930e-04     1.40255643e-03     0.00000000e+00    
           8.46845971e-04     1.41369062e-03     0.00000000e+00    
           8.47180199e-04     1.42470701e-03     0.00000000e+00    
           8.44832626e-04     1.43485854e-03     0.00000000e+00    
           8.39563378e-04     1.44367036e-03     0.00000000e+00    
           8.31525307e-04     1.45001058e-03     0.00000000e+00    
           8.22448579e-04     1.45320257e-03     0.00000000e+00    
           8.12292565e-04     1.45366485e-03     0.00000000e+00    
           7.86763558e-04     1.44730648e-03     0.00000000e+00    
           7.73946173e-04     1.44083146e-03     0.00000000e+00    
           7.63736316e-04     1.43207004e-03     0.00000000e+00    
           7.56100810e-04     1.42179814e-03     0.00000000e+00    
           7.51611544e-04     1.41050864e-03     0.00000000e+00    
           7.50151754e-04     1.39896129e-03     0.00000000e+00    
           7.51806307e-04     1.38778263e-03     0.00000000e+00    
           7.56094581e-04     1.37771771e-03     0.00000000e+00    
           7.63248245e-04     1.36955117e-03     0.00000000e+00    
           7.83411728e-04     1.36145949e-03     0.00000000e+00    
           7.94285559e-04     1.36231468e-03     0.00000000e+00    
           8.04620038e-04     1.36537920e-03     0.00000000e+00    
           8.13826278e-04     1.37023546e-03     0.00000000e+00    
           8.22676986e-04     1.37569790e-03     0.00000000e+00    
           6.92577625e-04     1.25122187e-03     0.00000000e+00    
           7.00963370e-04     1.25685602e-03     0.00000000e+00    
           7.08873267e-04     1.26340287e-03     0.00000000e+00    
           7.14578317e-04     1.27141736e-03     0.00000000e+00    
           7.17962801e-04     1.28020905e-03     0.00000000e+00    
           7.18803727e-04     1.28927454e-03     0.00000000e+00    
           7.17410934e-04     1.29770150e-03     0.00000000e+00    
           7.14099035e-04     1.30531366e-03     0.00000000e+00    
           7.08945852e-04     1.31148414e-03     0.00000000e+00    
           7.02398655e-04     1.31616602e-03     0.00000000e+00    
           6.93527225e-04     1.31817872e-03     0.00000000e+00    
           6.84272440e-04     1.31652469e-03     0.00000000e+00    
           6.66877371e-04     1.30908831e-03     0.00000000e+00    
           6.59184880e-04     1.30369375e-03     0.00000000e+00    
           6.52374467e-04     1.29709078e-03     0.00000000e+00    
           6.47054811e-04     1.28948118e-03     0.00000000e+00    
           6.43388717e-04     1.28109567e-03     0.00000000e+00    
           6.41766936e-04     1.27234694e-03     0.00000000e+00    
           6.42432366e-04     1.26398716e-03     0.00000000e+00    
           6.44834945e-04     1.25634915e-03     0.00000000e+00    
           6.49275375e-04     1.25002523e-03     0.00000000e+00    
           6.55697717e-04     1.24522357e-03     0.00000000e+00    
           6.64423394e-04     1.24289759e-03     0.00000000e+00    
           6.74118055e-04     1.24358747e-03     0.00000000e+00    
           8.27718759e-04     1.45910017e-03     0.00000000e+00    
           8.39667569e-04     1.46622153e-03     0.00000000e+00    
           8.49042437e-04     1.47555070e-03     0.00000000e+00    
           8.55083345e-04     1.48628501e-03     0.00000000e+00    
           8.57635634e-04     1.49761862e-03     0.00000000e+00    
           8.56687315e-04     1.50859065e-03     0.00000000e+00    
           8.52628495e-04     1.51829177e-03     0.00000000e+00    
           8.45614530e-04     1.52572501e-03     0.00000000e+00    
           8.36334890e-04     1.53010606e-03     0.00000000e+00    
           8.25908326e-04     1.53094414e-03     0.00000000e+00    
           8.02744587e-04     1.52458076e-03     0.00000000e+00    
           7.92063191e-04     1.51730620e-03     0.00000000e+00    
           7.83552299e-04     1.50782685e-03     0.00000000e+00    
           7.78053422e-04     1.49686867e-03     0.00000000e+00    
           7.75421155e-04     1.48551492e-03     0.00000000e+00    
           7.76178611e-04     1.47471449e-03     0.00000000e+00    
           7.79587775e-04     1.46515085e-03     0.00000000e+00    
           7.85786891e-04     1.45769562e-03     0.00000000e+00    
           7.94113555e-04     1.45373843e-03     0.00000000e+00    
           8.03667470e-04     1.45277602e-03     0.00000000e+00    
           3.01766820e-04     5.22033428e-04     0.00000000e+00    
           3.00912827e-04     5.23802591e-04     0.00000000e+00    
           2.99509964e-04     5.24929899e-04     0.00000000e+00    
           2.98213039e-04     5.25290263e-04     0.00000000e+00    
           2.96937302e-04     5.24755684e-04     0.00000000e+00    
           2.95979582e-04     5.23610041e-04     0.00000000e+00    
           2.95296311e-04     5.21865964e-04     0.00000000e+00    
           2.94980273e-04     5.19736030e-04     0.00000000e+00    
           2.93423829e-04     5.17138571e-04     0.00000000e+00    
           2.92035867e-04     5.13460778e-04     0.00000000e+00    
           2.91244505e-04     5.09129663e-04     0.00000000e+00    
           2.93008401e-04     5.02851210e-04     0.00000000e+00    
           2.94228754e-04     5.01262548e-04     0.00000000e+00    
           2.95969541e-04     5.00640308e-04     0.00000000e+00    
           2.97147257e-04     5.00675058e-04     0.00000000e+00    
           2.98049592e-04     5.01362025e-04     0.00000000e+00    
           2.98530504e-04     5.02552954e-04     0.00000000e+00    
           2.98965635e-04     5.04097261e-04     0.00000000e+00    
           2.99234031e-04     5.05961070e-04     0.00000000e+00    
           2.99995212e-04     5.08371682e-04     0.00000000e+00    
           3.01107240e-04     5.11360937e-04     0.00000000e+00    
           3.01956403e-04     5.15247812e-04     0.00000000e+00    
           2.37812492e-04     3.27409012e-04     0.00000000e+00    
           2.38665729e-04     3.26295383e-04     0.00000000e+00    
           2.39598783e-04     3.25887289e-04     0.00000000e+00    
           2.40518115e-04     3.26034962e-04     0.00000000e+00    
           2.41512942e-04     3.26806941e-04     0.00000000e+00    
           2.42704133e-04     3.28081835e-04     0.00000000e+00    
           2.44323281e-04     3.30087816e-04     0.00000000e+00    
           2.45667150e-04     3.33826727e-04     0.00000000e+00    
           2.46071897e-04     3.37846635e-04     0.00000000e+00    
           2.45708739e-04     3.43037595e-04     0.00000000e+00    
           2.45456409e-04     3.45035078e-04     0.00000000e+00    
           2.45614559e-04     3.46990884e-04     0.00000000e+00    
           2.45555158e-04     3.48098431e-04     0.00000000e+00    
           2.45585165e-04     3.48665868e-04     0.00000000e+00    
           2.45215691e-04     3.48681584e-04     0.00000000e+00    
           2.44790717e-04     3.48130765e-04     0.00000000e+00    
           2.44328985e-04     3.47146124e-04     0.00000000e+00    
           2.43790404e-04     3.45509208e-04     0.00000000e+00    
           2.40446403e-04     3.40284430e-04     0.00000000e+00    
           2.39014349e-04     3.36030964e-04     0.00000000e+00    
           2.38149922e-04     3.32817435e-04     0.00000000e+00    
           2.37123124e-04     3.30885901e-04     0.00000000e+00    
           4.56453796e-04     7.91254337e-04     0.00000000e+00    
           4.63225995e-04     7.96198379e-04     0.00000000e+00    
           4.69040184e-04     8.02202674e-04     0.00000000e+00    
           4.74155531e-04     8.09632649e-04     0.00000000e+00    
           4.77205816e-04     8.17883352e-04     0.00000000e+00    
           4.77997848e-04     8.25972820e-04     0.00000000e+00    
           4.76649089e-04     8.33399361e-04     0.00000000e+00    
           4.73662658e-04     8.39682296e-04     0.00000000e+00    
           4.69196908e-04     8.44293099e-04     0.00000000e+00    
           4.62488941e-04     8.46709765e-04     0.00000000e+00    
           4.53431654e-04     8.46581010e-04     0.00000000e+00    
           4.33859677e-04     8.39813321e-04     0.00000000e+00    
           4.26016224e-04     8.33549188e-04     0.00000000e+00    
           4.20018972e-04     8.26361065e-04     0.00000000e+00    
           4.15459508e-04     8.18587607e-04     0.00000000e+00    
           4.12957103e-04     8.10479687e-04     0.00000000e+00    
           4.12463414e-04     8.02266179e-04     0.00000000e+00    
           4.14158334e-04     7.94733933e-04     0.00000000e+00    
           4.18329029e-04     7.88286037e-04     0.00000000e+00    
           4.24702564e-04     7.83814816e-04     0.00000000e+00    