<?xml version="1.0"?>
<VTKFile type="UnstructuredGrid" version="0.1">
  <UnstructuredGrid>
    <Piece NumberOfPoints="1034" NumberOfCells="1614">
      <Points>
        <DataArray type="Float32" NumberOfComponents="3">
           5.21582007e-01     5.11657000e-01     0.00000000e+00    
           5.07319987e-01     5.11657000e-01     0.00000000e+00    
           4.65243995e-01     5.17907977e-01     0.00000000e+00    
           4.65243995e-01     5.04921973e-01     0.00000000e+00    
           4.75246996e-01     5.11415005e-01     0.00000000e+00    
           5.33852994e-01     5.04921973e-01     0.00000000e+00    
           5.33852994e-01     5.17907977e-01     0.00000000e+00    
           4.83779997e-01     5.34618974e-01     0.00000000e+00    
           4.68984991e-01     5.34618974e-01     0.00000000e+00    
           4.76381987e-01     5.23841977e-01     0.00000000e+00    
           4.68984991e-01     4.66010004e-01     0.00000000e+00    
           4.83779997e-01     4.66010004e-01     0.00000000e+00    
           4.99920011e-01     5.34618974e-01     0.00000000e+00    
           4.89203990e-01     5.34618974e-01     0.00000000e+00    
           4.94562000e-01     5.22280991e-01     0.00000000e+00    
           4.89203990e-01     4.66010004e-01     0.00000000e+00    
           4.99920011e-01     4.66010004e-01     0.00000000e+00    
           5.32517016e-01     4.74112004e-01     0.00000000e+00    
           5.17961025e-01     4.74112004e-01     0.00000000e+00    
           5.33852994e-01     5.19801974e-01     0.00000000e+00    
           5.33852994e-01     5.29603004e-01     0.00000000e+00    
           5.19536972e-01     5.24702013e-01     0.00000000e+00    
           4.65243995e-01     5.29603004e-01     0.00000000e+00    
           4.65243995e-01     5.19801974e-01     0.00000000e+00    
           4.92487997e-01     5.17117977e-01     0.00000000e+00    
           4.76904988e-01     5.17117977e-01     0.00000000e+00    
           5.17996013e-01     5.27033985e-01     0.00000000e+00    
           5.04473984e-01     5.27033985e-01     0.00000000e+00    
           5.08446991e-01     4.83435005e-01     0.00000000e+00    
           4.94414002e-01     4.83435005e-01     0.00000000e+00    
           4.65243995e-01     4.83101994e-01     0.00000000e+00    
           4.65243995e-01     4.74415004e-01     0.00000000e+00    
           4.78336990e-01     4.78758007e-01     0.00000000e+00    
           5.33852994e-01     4.74415004e-01     0.00000000e+00    
           5.33852994e-01     4.83101994e-01     0.00000000e+00    
           4.80668008e-01     4.95810986e-01     0.00000000e+00    
           4.66084987e-01     4.95810986e-01     0.00000000e+00    
           4.93930012e-01     4.79214013e-01     0.00000000e+00    
           4.78967011e-01     4.79214013e-01     0.00000000e+00    
           5.09284973e-01     4.97658014e-01     0.00000000e+00    
           4.95503992e-01     4.97658014e-01     0.00000000e+00    
           5.33011973e-01     5.01751006e-01     0.00000000e+00    
           5.17829001e-01     5.01751006e-01     0.00000000e+00    
           4.95451003e-01     5.00564992e-01     0.00000000e+00    
           4.80922014e-01     5.00564992e-01     0.00000000e+00    
           5.25367022e-01     4.88312006e-01     0.00000000e+00    
           5.09521008e-01     4.88312006e-01     0.00000000e+00    
           4.65243995e-01     5.34618974e-01     0.00000000e+00    
           4.65243995e-01     4.66010004e-01     0.00000000e+00    
           5.33852994e-01     4.66010004e-01     0.00000000e+00    
           5.33852994e-01     5.34618974e-01     0.00000000e+00    
           5.21338999e-01     5.13502657e-01     0.00000000e+00    
           5.20626605e-01     5.15222490e-01     0.00000000e+00    
           5.19493401e-01     5.16699374e-01     0.00000000e+00    
           5.18016517e-01     5.17832637e-01     0.00000000e+00    
           5.16296625e-01     5.18545032e-01     0.00000000e+00    
           5.14451027e-01     5.18787980e-01     0.00000000e+00    
           5.12605369e-01     5.18545032e-01     0.00000000e+00    
           5.10885477e-01     5.17832637e-01     0.00000000e+00    
           5.09408593e-01     5.16699374e-01     0.00000000e+00    
           5.08275390e-01     5.15222490e-01     0.00000000e+00    
           5.07562995e-01     5.13502657e-01     0.00000000e+00    
           5.07562995e-01     5.09811342e-01     0.00000000e+00    
           5.08275390e-01     5.08091509e-01     0.00000000e+00    
           5.09408593e-01     5.06614625e-01     0.00000000e+00    
           5.10885477e-01     5.05481362e-01     0.00000000e+00    
           5.12605369e-01     5.04768968e-01     0.00000000e+00    
           5.14451027e-01     5.04526019e-01     0.00000000e+00    
           5.16296625e-01     5.04768968e-01     0.00000000e+00    
           5.18016517e-01     5.05481362e-01     0.00000000e+00    
           5.19493401e-01     5.06614625e-01     0.00000000e+00    
           5.20626605e-01     5.08091509e-01     0.00000000e+00    
           5.21338999e-01     5.09811342e-01     0.00000000e+00    
           4.66931671e-01     5.04409373e-01     0.00000000e+00    
           4.68693614e-01     5.04328012e-01     0.00000000e+00    
           4.70421344e-01     5.04682958e-01     0.00000000e+00    
           4.72008497e-01     5.05452335e-01     0.00000000e+00    
           4.73357379e-01     5.06588817e-01     0.00000000e+00    
           4.74384934e-01     5.08022368e-01     0.00000000e+00    
           4.75027919e-01     5.09664834e-01     0.00000000e+00    
           4.75028187e-01     5.13165236e-01     0.00000000e+00    
           4.74385172e-01     5.14807761e-01     0.00000000e+00    
           4.73357558e-01     5.16241372e-01     0.00000000e+00    
           4.72008646e-01     5.17377913e-01     0.00000000e+00    
           4.70421433e-01     5.18147290e-01     0.00000000e+00    
           4.68693614e-01     5.18502235e-01     0.00000000e+00    
           4.66931641e-01     5.18420875e-01     0.00000000e+00    
           5.32303810e-01     5.16964078e-01     0.00000000e+00    
           5.31043947e-01     5.15658796e-01     0.00000000e+00    
           5.30155540e-01     5.14077127e-01     0.00000000e+00    
           5.29696345e-01     5.12322068e-01     0.00000000e+00    
           5.29696345e-01     5.10507941e-01     0.00000000e+00    
           5.30155540e-01     5.08752882e-01     0.00000000e+00    
           5.31043947e-01     5.07171214e-01     0.00000000e+00    
           5.32303810e-01     5.05865932e-01     0.00000000e+00    
           4.68517244e-01     5.32760799e-01     0.00000000e+00    
           4.68509018e-01     5.30844629e-01     0.00000000e+00    
           4.68960851e-01     5.28982460e-01     0.00000000e+00    
           4.69846308e-01     5.27283132e-01     0.00000000e+00    
           4.71113682e-01     5.25845945e-01     0.00000000e+00    
           4.72688884e-01     5.24754822e-01     0.00000000e+00    
           4.74479854e-01     5.24073541e-01     0.00000000e+00    
           4.78284091e-01     5.24073601e-01     0.00000000e+00    
           4.80075032e-01     5.24754822e-01     0.00000000e+00    
           4.81650203e-01     5.25845885e-01     0.00000000e+00    
           4.82917547e-01     5.27283013e-01     0.00000000e+00    
           4.83803004e-01     5.28982282e-01     0.00000000e+00    
           4.84254897e-01     5.30844331e-01     0.00000000e+00    
           4.84246761e-01     5.32760441e-01     0.00000000e+00    
           4.82887864e-01     4.67691004e-01     0.00000000e+00    
           4.81620818e-01     4.69110936e-01     0.00000000e+00    
           4.80051905e-01     4.70188022e-01     0.00000000e+00    
           4.78271484e-01     4.70860153e-01     0.00000000e+00    
           4.76382166e-01     4.71088618e-01     0.00000000e+00    
           4.74492878e-01     4.70860243e-01     0.00000000e+00    
           4.72712427e-01     4.70188200e-01     0.00000000e+00    
           4.71143454e-01     4.69111174e-01     0.00000000e+00    
           4.69876349e-01     4.67691302e-01     0.00000000e+00    
           4.88103986e-01     5.33086061e-01     0.00000000e+00    
           4.87431526e-01     5.31323195e-01     0.00000000e+00    
           4.87231195e-01     5.29447019e-01     0.00000000e+00    
           4.87516224e-01     5.27581930e-01     0.00000000e+00    
           4.88267750e-01     5.25851250e-01     0.00000000e+00    
           4.89436030e-01     5.24369657e-01     0.00000000e+00    
           4.90943670e-01     5.23235261e-01     0.00000000e+00    
           4.92690891e-01     5.22523046e-01     0.00000000e+00    
           4.96432930e-01     5.22523701e-01     0.00000000e+00    
           4.98180002e-01     5.23235798e-01     0.00000000e+00    
           4.99687493e-01     5.24370134e-01     0.00000000e+00    
           5.00855684e-01     5.25851607e-01     0.00000000e+00    
           5.01607120e-01     5.27582109e-01     0.00000000e+00    
           5.01892149e-01     5.29447079e-01     0.00000000e+00    
           5.01691818e-01     5.31323016e-01     0.00000000e+00    
           5.01019418e-01     5.33085763e-01     0.00000000e+00    
           4.98371124e-01     4.67269689e-01     0.00000000e+00    
           4.96539861e-01     4.68064904e-01     0.00000000e+00    
           4.94562000e-01     4.68336672e-01     0.00000000e+00    
           4.92584139e-01     4.68064904e-01     0.00000000e+00    
           4.90752876e-01     4.67269689e-01     0.00000000e+00    
           5.32269001e-01     4.75995690e-01     0.00000000e+00    
           5.31541944e-01     4.77750987e-01     0.00000000e+00    
           5.30385315e-01     4.79258329e-01     0.00000000e+00    
           5.28877974e-01     4.80414927e-01     0.00000000e+00    
[...]
      <PointData>
        <DataArray type="Float32" Name="Displacement" NumberOfComponents="3">
           3.97722732e-04     7.00288976e-04     0.00000000e+00    
           3.92523623e-04     7.82666728e-04     0.00000000e+00    
           4.15149610e-04     7.41695520e-04     0.00000000e+00    
           3.59715195e-04     7.21119111e-04     0.00000000e+00    
           3.91875976e-04     6.98171032e-04     0.00000000e+00    
           3.59715195e-04     7.21119111e-04     0.00000000e+00    
           4.15149610e-04     7.41695520e-04     0.00000000e+00    
           5.45502757e-04     1.00682571e-03     0.00000000e+00    
           5.42488240e-04     1.05713401e-03     0.00000000e+00    
           5.02782699e-04     1.01470656e-03     0.00000000e+00    
           1.74882407e-05     7.13399504e-06     0.00000000e+00    
           2.05027718e-05    -4.31743028e-05     0.00000000e+00    
           5.31035184e-04     9.84427403e-04     0.00000000e+00    
           5.28472476e-04     1.02234329e-03     0.00000000e+00    
           4.78382921e-04     9.85092949e-04     0.00000000e+00    
           3.47250261e-06    -2.76566607e-05     0.00000000e+00    
           6.03517401e-06    -6.55726108e-05     0.00000000e+00    
           1.20359517e-04     1.44154998e-04     0.00000000e+00    
           1.14037481e-04     2.00102615e-04     0.00000000e+00    
           4.86959878e-04     8.73320969e-04     0.00000000e+00    
           5.22118760e-04     8.91634962e-04     0.00000000e+00    
           5.04477241e-04     9.27386747e-04     0.00000000e+00    
           5.22118760e-04     8.91634962e-04     0.00000000e+00    
           4.86959878e-04     8.73320969e-04     0.00000000e+00    
           4.32871660e-04     8.08362733e-04     0.00000000e+00    
           4.27161431e-04     8.56273167e-04     0.00000000e+00    
           5.16145548e-04     9.21550556e-04     0.00000000e+00    
           5.16637345e-04     9.67054337e-04     0.00000000e+00    
           1.89896586e-04     3.43081949e-04     0.00000000e+00    
           1.82242235e-04     3.29400704e-04     0.00000000e+00    
           1.52100707e-04     2.08902493e-04     0.00000000e+00    
           1.39324664e-04     1.95672299e-04     0.00000000e+00    
           1.49158499e-04     1.93950182e-04     0.00000000e+00    
           1.39324664e-04     1.95672299e-04     0.00000000e+00    
           1.52100707e-04     2.08902493e-04     0.00000000e+00    
           2.82402238e-04     4.97771311e-04     0.00000000e+00    
           2.79687025e-04     5.34412218e-04     0.00000000e+00    
           1.63845427e-04     2.35713465e-04     0.00000000e+00    
           1.57492337e-04     2.18859946e-04     0.00000000e+00    
           2.96423357e-04     4.64377401e-04     0.00000000e+00    
           2.92239565e-04     5.23615279e-04     0.00000000e+00    
           3.23577056e-04     5.84057474e-04     0.00000000e+00    
           3.17847880e-04     6.71273738e-04     0.00000000e+00    
           2.97877123e-04     5.32159873e-04     0.00000000e+00    
           2.94538884e-04     5.70034957e-04     0.00000000e+00    
           2.47817021e-04     3.47108435e-04     0.00000000e+00    
           2.40509384e-04     4.12731810e-04     0.00000000e+00    
           5.24999981e-04     1.04999996e-03     0.00000000e+00    
           0.00000000e+00     0.00000000e+00     0.00000000e+00    
           0.00000000e+00     0.00000000e+00     0.00000000e+00    
           5.24999981e-04     1.04999996e-03     0.00000000e+00    
           4.09494300e-04     7.05759740e-04     0.00000000e+00    
           4.20686963e-04     7.12617300e-04     0.00000000e+00    
           4.29917942e-04     7.21548335e-04     0.00000000e+00    
           4.36314149e-04     7.31925596e-04     0.00000000e+00    
           4.39569936e-04     7.43261888e-04     0.00000000e+00    
           4.39936004e-04     7.54531007e-04     0.00000000e+00    
           4.37816925e-04     7.64916942e-04     0.00000000e+00    
           4.33202571e-04     7.73726671e-04     0.00000000e+00    
           4.25662729e-04     7.80368224e-04     0.00000000e+00    
           4.15499060e-04     7.83764874e-04     0.00000000e+00    
           4.04233811e-04     7.84567324e-04     0.00000000e+00    
           3.81020101e-04     7.78156333e-04     0.00000000e+00    
           3.70236172e-04     7.72065017e-04     0.00000000e+00    
           3.60859383e-04     7.63937540e-04     0.00000000e+00    
           3.53664684e-04     7.54430599e-04     0.00000000e+00    
           3.49323644e-04     7.43957818e-04     0.00000000e+00    
           3.47991008e-04     7.33473687e-04     0.00000000e+00    
           3.49701906e-04     7.23159290e-04     0.00000000e+00    
           3.54635849e-04     7.12814159e-04     0.00000000e+00    
           3.63040832e-04     7.04250531e-04     0.00000000e+00    
           3.72759998e-04     6.98998803e-04     0.00000000e+00    
           3.84730316e-04     6.97914162e-04     0.00000000e+00    
           3.59160447e-04     7.14303693e-04     0.00000000e+00    
           3.60210979e-04     7.07843981e-04     0.00000000e+00    
           3.62384133e-04     7.02144229e-04     0.00000000e+00    
           3.66007240e-04     6.97645475e-04     0.00000000e+00    
           3.71317961e-04     6.95023395e-04     0.00000000e+00    
           3.77960096e-04     6.94239337e-04     0.00000000e+00    
           3.85018851e-04     6.95747382e-04     0.00000000e+00    
           3.98096396e-04     7.01570127e-04     0.00000000e+00    
           4.04003513e-04     7.05410435e-04     0.00000000e+00    
           4.09247528e-04     7.10306223e-04     0.00000000e+00    
           4.13588452e-04     7.15894450e-04     0.00000000e+00    
           4.16642521e-04     7.22257246e-04     0.00000000e+00    
           4.18057432e-04     7.28905667e-04     0.00000000e+00    
           4.17294330e-04     7.35737034e-04     0.00000000e+00    
           4.11000161e-04     7.46614882e-04     0.00000000e+00    
           4.05018247e-04     7.49760948e-04     0.00000000e+00    
           3.97340540e-04     7.49933010e-04     0.00000000e+00    
           3.89195746e-04     7.47996964e-04     0.00000000e+00    
           3.81819264e-04     7.43854733e-04     0.00000000e+00    
           3.74365161e-04     7.39408599e-04     0.00000000e+00    
           3.67538829e-04     7.34388363e-04     0.00000000e+00    
           3.62595165e-04     7.28014333e-04     0.00000000e+00    
           5.34311635e-04     1.05469092e-03     0.00000000e+00    
           5.27255179e-04     1.05101266e-03     0.00000000e+00    
           5.20990696e-04     1.04671170e-03     0.00000000e+00    
           5.15096763e-04     1.04167615e-03     0.00000000e+00    
           5.09949110e-04     1.03582628e-03     0.00000000e+00    
           5.05859905e-04     1.02930213e-03     0.00000000e+00    
           5.03234856e-04     1.02211966e-03     0.00000000e+00    
           5.04405180e-04     1.00776821e-03     0.00000000e+00    
           5.07451594e-04     1.00223278e-03     0.00000000e+00    
           5.11567283e-04     9.98153817e-04     0.00000000e+00    
           5.16807311e-04     9.95657872e-04     0.00000000e+00    
           5.22724062e-04     9.96221555e-04     0.00000000e+00    
           5.29385521e-04     9.98882693e-04     0.00000000e+00    
           5.37191750e-04     1.00215594e-03     0.00000000e+00    
           2.83124555e-05    -3.77734759e-05     0.00000000e+00    
           3.46440647e-05    -3.13316559e-05     0.00000000e+00    
           3.90230598e-05    -2.42194546e-05     0.00000000e+00    
           4.11220281e-05    -1.67467024e-05     0.00000000e+00    
           4.10882822e-05    -9.67455708e-06     0.00000000e+00    
           3.93952541e-05    -3.39167582e-06     0.00000000e+00    
           3.63151230e-05     1.79118604e-06     0.00000000e+00    
           3.18393140e-05     5.52390202e-06     0.00000000e+00    
           2.50825742e-05     7.34619653e-06     0.00000000e+00    
           5.22487680e-04     1.02315994e-03     0.00000000e+00    
           5.15917840e-04     1.02173141e-03     0.00000000e+00    
           5.08392404e-04     1.01896306e-03     0.00000000e+00    
           4.99813526e-04     1.01461518e-03     0.00000000e+00    
           4.91616491e-04     1.01000792e-03     0.00000000e+00    
           4.84912161e-04     1.00431708e-03     0.00000000e+00    
           4.80534974e-04     9.97758470e-04     0.00000000e+00    
           4.78306581e-04     9.91235836e-04     0.00000000e+00    
           4.80309624e-04     9.79650649e-04     0.00000000e+00    
           4.83880925e-04     9.75052651e-04     0.00000000e+00    
           4.88838588e-04     9.71734698e-04     0.00000000e+00    
           4.94843640e-04     9.69737710e-04     0.00000000e+00    
           5.01635077e-04     9.69354645e-04     0.00000000e+00    
           5.09267556e-04     9.70480149e-04     0.00000000e+00    
           5.17191773e-04     9.73624119e-04     0.00000000e+00    
           5.24669653e-04     9.78255412e-04     0.00000000e+00    
           1.09584707e-05    -5.82939319e-05     0.00000000e+00    
           1.38127534e-05    -5.05926655e-05     0.00000000e+00    
           1.43457091e-05    -4.31001390e-05     0.00000000e+00    
           1.25515653e-05    -3.63089130e-05     0.00000000e+00    
           8.75182468e-06    -3.09610041e-05     0.00000000e+00    
           1.28104861e-04     1.47465878e-04     0.00000000e+00    
           1.34532922e-04     1.51686807e-04     0.00000000e+00    
           1.39753844e-04     1.57181974e-04     0.00000000e+00    
           1.44467602e-04     1.64214231e-04     0.00000000e+00    
           1.47650688e-04     1.72579879e-04     0.00000000e+00    
           1.48207313e-04     1.81232914e-04     0.00000000e+00    
           1.47165134e-04     1.89461731e-04     0.00000000e+00    
           1.43619385e-04     1.96210851e-04     0.00000000e+00    
           1.38509509e-04     2.01316841e-04     0.00000000e+00    
           1.31306660e-04     2.03940304e-04     0.00000000e+00    
           1.22566620e-04     2.03548960e-04     0.00000000e+00    
           1.05534076e-04     1.95676315e-04     0.00000000e+00    
           9.81652556e-05     1.89520448e-04     0.00000000e+00    
           9.20935563e-05     1.82582182e-04     0.00000000e+00    
           8.76640916e-05     1.74934132e-04     0.00000000e+00    
           8.52329176e-05     1.66967715e-04     0.00000000e+00    
           8.48528216e-05     1.59202944e-04     0.00000000e+00    
           8.62594898e-05     1.52115768e-04     0.00000000e+00    
           8.94694822e-05     1.46436243e-04     0.00000000e+00    
           9.51988914e-05     1.42346500e-04     0.00000000e+00    
           1.03020480e-04     1.40775839e-04     0.00000000e+00    
           1.11861169e-04     1.41386889e-04     0.00000000e+00    
           5.26418677e-04     8.97759921e-04     0.00000000e+00    
           5.29490644e-04     9.04561894e-04     0.00000000e+00    
           5.31088794e-04     9.11373470e-04     0.00000000e+00    
           5.31412137e-04     9.17784055e-04     0.00000000e+00    
           5.30278543e-04     9.23291896e-04     0.00000000e+00    
           5.27317170e-04     9.27651476e-04     0.00000000e+00    
           5.22716029e-04     9.29903297e-04     0.00000000e+00    
           5.17661683e-04     9.30293696e-04     0.00000000e+00    
           5.11941733e-04     9.29340196e-04     0.00000000e+00    
           4.95732180e-04     9.23893531e-04     0.00000000e+00    
           4.87051992e-04     9.19253798e-04     0.00000000e+00    
           4.80293733e-04     9.13403346e-04     0.00000000e+00    
           4.75503824e-04     9.06980364e-04     0.00000000e+00    
           4.72864456e-04     9.00139508e-04     0.00000000e+00    
           4.72179963e-04     8.93301738e-04     0.00000000e+00    
           4.73520195e-04     8.86533642e-04     0.00000000e+00    
           4.76251647e-04     8.80344247e-04     0.00000000e+00    
           4.80830524e-04     8.75898579e-04     0.00000000e+00    
           4.93647705e-04     8.73176206e-04     0.00000000e+00    
           5.00407186e-04     8.75132566e-04     0.00000000e+00    
           5.06804150e-04     8.78387247e-04     0.00000000e+00    
           5.12312225e-04     8.82646127e-04     0.00000000e+00    
           5.17424778e-04     8.86858907e-04     0.00000000e+00    
           4.39942523e-04     8.12691404e-04     0.00000000e+00    
           4.46408987e-04     8.17838591e-04     0.00000000e+00    
           4.52746899e-04     8.23029957e-04     0.00000000e+00    
           4.57211863e-04     8.29230645e-04     0.00000000e+00    
           4.59782023e-04     8.35727493e-04     0.00000000e+00    
           4.60221810e-04     8.42272595e-04     0.00000000e+00    
           4.58868744e-04     8.48642027e-04     0.00000000e+00    
           4.56081034e-04     8.54106154e-04     0.00000000e+00    
           4.52182925e-04     8.58253567e-04     0.00000000e+00    
           4.47356753e-04     8.61136708e-04     0.00000000e+00    
           4.40617121e-04     8.61623848e-04     0.00000000e+00    
           4.33874113e-04     8.59198684e-04     0.00000000e+00    
           4.21066914e-04     8.52172612e-04     0.00000000e+00    
           4.15633054e-04     8.47767980e-04     0.00000000e+00    
           4.10776614e-04     8.42725451e-04     0.00000000e+00    
           4.06945299e-04     8.36768246e-04     0.00000000e+00    
           4.04233724e-04     8.30298697e-04     0.00000000e+00    
           4.02947684e-04     8.23688111e-04     0.00000000e+00    
           4.03300626e-04     8.17648834e-04     0.00000000e+00    
           4.04676422e-04     8.12256301e-04     0.00000000e+00    
           4.07644402e-04     8.08089681e-04     0.00000000e+00    
           4.12243913e-04     8.05237622e-04     0.00000000e+00    
           4.18499840e-04     8.04356241e-04     0.00000000e+00    
           4.25623381e-04     8.05518299e-04     0.00000000e+00    
           5.24367904e-04     9.25024855e-04     0.00000000e+00    
           5.32547594e-04     9.30158363e-04     0.00000000e+00    
           5.38791704e-04     9.36524360e-04     0.00000000e+00    
           5.42529742e-04     9.43466322e-04     0.00000000e+00    
           5.43875794e-04     9.50456772e-04     0.00000000e+00    
           5.42927941e-04     9.56966716e-04     0.00000000e+00    
           5.40145382e-04     9.62380378e-04     0.00000000e+00    
           5.35808213e-04     9.66259628e-04     0.00000000e+00    
           5.30118938e-04     9.68353648e-04     0.00000000e+00    
           5.23723662e-04     9.68379958e-04     0.00000000e+00    
           5.09258069e-04     9.63773113e-04     0.00000000e+00    
           5.02430485e-04     9.58759047e-04     0.00000000e+00    
           4.96962923e-04     9.52154922e-04     0.00000000e+00    
           4.93527565e-04     9.44375875e-04     0.00000000e+00    
           4.91824176e-04     9.36308643e-04     0.00000000e+00    
           4.92428546e-04     9.29241418e-04     0.00000000e+00    
           4.94552660e-04     9.23579151e-04     0.00000000e+00    
           4.98416834e-04     9.19799320e-04     0.00000000e+00    
           5.03375020e-04     9.18883714e-04     0.00000000e+00    
           5.08975121e-04     9.19577491e-04     0.00000000e+00    
           1.90279927e-04     3.45439912e-04     0.00000000e+00    
           1.89686441e-04     3.46858549e-04     0.00000000e+00    
           1.88655787e-04     3.48035508e-04     0.00000000e+00    
           1.87855010e-04     3.49093782e-04     0.00000000e+00    
           1.86843463e-04     3.49057344e-04     0.00000000e+00    
           1.85908051e-04     3.48131027e-04     0.00000000e+00    
           1.85258439e-04     3.46359971e-04     0.00000000e+00    
           1.84847377e-04     3.44009866e-04     0.00000000e+00    
           1.83326469e-04     3.40830855e-04     0.00000000e+00    
           1.82270232e-04     3.36951402e-04     0.00000000e+00    
           1.81748183e-04     3.32938042e-04     0.00000000e+00    
           1.82958436e-04     3.27595917e-04     0.00000000e+00    
           1.83899407e-04     3.26449459e-04     0.00000000e+00    
           1.85274635e-04     3.26195848e-04     0.00000000e+00    
           1.86023579e-04     3.26298934e-04     0.00000000e+00    
           1.86480771e-04     3.26884678e-04     0.00000000e+00    
           1.86659265e-04     3.27979651e-04     0.00000000e+00    
           1.87035883e-04     3.29412753e-04     0.00000000e+00    
           1.87496596e-04     3.31228017e-04     0.00000000e+00    
           1.88274818e-04     3.33744101e-04     0.00000000e+00    
           1.89124999e-04     3.36608529e-04     0.00000000e+00    
           1.89801984e-04     3.39901948e-04     0.00000000e+00    
           1.38691990e-04     1.93401851e-04     0.00000000e+00    
           1.38101343e-04     1.90546634e-04     0.00000000e+00    
           1.38106669e-04     1.87885380e-04     0.00000000e+00    
           1.38776843e-04     1.85868717e-04     0.00000000e+00    
           1.39901589e-04     1.84660137e-04     0.00000000e+00    
           1.41589931e-04     1.84278964e-04     0.00000000e+00    
           1.44069505e-04     1.85043653e-04     0.00000000e+00    
           1.46331236e-04     1.88023012e-04     0.00000000e+00    
           1.47901854e-04     1.91276893e-04     0.00000000e+00    
           1.50548920e-04     1.96118199e-04     0.00000000e+00    
           1.52219247e-04     1.98591792e-04     0.00000000e+00    
           1.54155088e-04     2.01752555e-04     0.00000000e+00    
           1.55497532e-04     2.04445911e-04     0.00000000e+00    
           1.56757145e-04     2.06734592e-04     0.00000000e+00    
           1.57111353e-04     2.08499230e-04     0.00000000e+00    
           1.56930968e-04     2.09607460e-04     0.00000000e+00    
           1.56182417e-04     2.10142040e-04     0.00000000e+00    
           1.54714930e-04     2.09909471e-04     0.00000000e+00    
           1.49134139e-04     2.06548211e-04     0.00000000e+00    
           1.46264952e-04     2.03225878e-04     0.00000000e+00    
           1.43615078e-04     2.00216527e-04     0.00000000e+00    
           1.40973978e-04     1.97996065e-04     0.00000000e+00    
           2.86820985e-04     5.01512142e-04     0.00000000e+00    
           2.91176286e-04     5.04967989e-04     0.00000000e+00    
           2.95195350e-04     5.09002537e-04     0.00000000e+00    
           2.98993371e-04     5.14253858e-04     0.00000000e+00    
           3.01205670e-04     5.20253438e-04     0.00000000e+00    
           3.01745196e-04     5.26054355e-04     0.00000000e+00    
           3.00864631e-04     5.31028199e-04     0.00000000e+00    
           2.99043255e-04     5.34822349e-04     0.00000000e+00    
           2.96321843e-04     5.37078071e-04     0.00000000e+00    
           2.92179757e-04     5.37685817e-04     0.00000000e+00    
           2.86431808e-04     5.36670268e-04     0.00000000e+00    
           2.73210491e-04     5.30663587e-04     0.00000000e+00    
           2.67698575e-04     5.25514944e-04     0.00000000e+00    
           2.63435126e-04     5.19730151e-04     0.00000000e+00    
           2.60096334e-04     5.13917126e-04     0.00000000e+00    
           2.58179585e-04     5.08223951e-04     0.00000000e+00    
           2.57600157e-04     5.02717274e-04     0.00000000e+00    
           2.58515473e-04     4.98042500e-04     0.00000000e+00    
           2.61512643e-04     4.94268374e-04     0.00000000e+00    
           2.66126619e-04     4.92191815e-04     0.00000000e+00    