<?xml version="1.0"?>
<VTKFile type="UnstructuredGrid" version="0.1">
  <UnstructuredGrid>
    <Piece NumberOfPoints="1034" NumberOfCells="1614">
      <Points>
        <DataArray type="Float32" NumberOfComponents="3">
           5.21582007e-01     5.11657000e-01     0.00000000e+00    
           5.07319987e-01     5.11657000e-01     0.00000000e+00    
           4.65243995e-01     5.17907977e-01     0.00000000e+00    
           4.65243995e-01     5.04921973e-01     0.00000000e+00    
           4.75246996e-01     5.11415005e-01     0.00000000e+00    
           5.33852994e-01     5.04921973e-01     0.00000000e+00    
           5.33852994e-01     5.17907977e-01     0.00000000e+00    
           4.83779997e-01     5.34618974e-01     0.00000000e+00    
           4.68984991e-01     5.34618974e-01     0.00000000e+00    
           4.76381987e-01     5.23841977e-01     0.00000000e+00    
           4.68984991e-01     4.66010004e-01     0.00000000e+00    
           4.83779997e-01     4.66010004e-01     0.00000000e+00    
           4.99920011e-01     5.34618974e-01     0.00000000e+00    
           4.89203990e-01     5.34618974e-01     0.00000000e+00    
           4.94562000e-01     5.22280991e-01     0.00000000e+00    
           4.89203990e-01     4.66010004e-01     0.00000000e+00    
           4.99920011e-01     4.66010004e-01     0.00000000e+00    
           5.32517016e-01     4.74112004e-01     0.00000000e+00    
           5.17961025e-01     4.74112004e-01     0.00000000e+00    
           5.33852994e-01     5.19801974e-01     0.00000000e+00    
           5.33852994e-01     5.29603004e-01     0.00000000e+00    
           5.19536972e-01     5.24702013e-01     0.00000000e+00    
           4.65243995e-01     5.29603004e-01     0.00000000e+00    
           4.65243995e-01     5.19801974e-01     0.00000000e+00    
           4.92487997e-01     5.17117977e-01     0.00000000e+00    
           4.76904988e-01     5.17117977e-01     0.00000000e+00    
           5.17996013e-01     5.27033985e-01     0.00000000e+00    
           5.04473984e-01     5.27033985e-01     0.00000000e+00    
           5.08446991e-01     4.83435005e-01     0.00000000e+00    
           4.94414002e-01     4.83435005e-01     0.00000000e+00    
           4.65243995e-01     4.83101994e-01     0.00000000e+00    
           4.65243995e-01     4.74415004e-01     0.00000000e+00    
           4.78336990e-01     4.78758007e-01     0.00000000e+00    
           5.33852994e-01     4.74415004e-01     0.00000000e+00    
           5.33852994e-01     4.83101994e-01     0.00000000e+00    
           4.80668008e-01     4.95810986e-01     0.00000000e+00    
           4.66084987e-01     4.95810986e-01     0.00000000e+00    
           4.93930012e-01     4.79214013e-01     0.00000000e+00    
           4.78967011e-01     4.79214013e-01     0.00000000e+00    
           5.09284973e-01     4.97658014e-01     0.00000000e+00    
           4.95503992e-01     4.97658014e-01     0.00000000e+00    
           5.33011973e-01     5.01751006e-01     0.00000000e+00    
           5.17829001e-01     5.01751006e-01     0.00000000e+00    
           4.95451003e-01     5.00564992e-01     0.00000000e+00    
           4.80922014e-01     5.00564992e-01     0.00000000e+00    
           5.25367022e-01     4.88312006e-01     0.00000000e+00    
           5.09521008e-01     4.88312006e-01     0.00000000e+00    
           4.65243995e-01     5.34618974e-01     0.00000000e+00    
           4.65243995e-01     4.66010004e-01     0.00000000e+00    
           5.33852994e-01     4.66010004e-01     0.00000000e+00    
           5.33852994e-01     5.34618974e-01     0.00000000e+00    
           5.21338999e-01     5.13502657e-01     0.00000000e+00    
           5.20626605e-01     5.15222490e-01     0.00000000e+00    
           5.19493401e-01     5.16699374e-01     0.00000000e+00    
           5.18016517e-01     5.17832637e-01     0.00000000e+00    
           5.16296625e-01     5.18545032e-01     0.00000000e+00    
           5.14451027e-01     5.18787980e-01     0.00000000e+00    
           5.12605369e-01     5.18545032e-01     0.00000000e+00    
           5.10885477e-01     5.17832637e-01     0.00000000e+00    
           5.09408593e-01     5.16699374e-01     0.00000000e+00    
           5.08275390e-01     5.15222490e-01     0.00000000e+00    
           5.07562995e-01     5.13502657e-01     0.00000000e+00    
           5.07562995e-01     5.09811342e-01     0.00000000e+00    
           5.08275390e-01     5.08091509e-01     0.00000000e+00    
           5.09408593e-01     5.06614625e-01     0.00000000e+00    
           5.10885477e-01     5.05481362e-01     0.00000000e+00    
           5.12605369e-01     5.04768968e-01     0.00000000e+00    
           5.14451027e-01     5.04526019e-01     0.00000000e+00    
           5.16296625e-01     5.04768968e-01     0.00000000e+00    
           5.18016517e-01     5.05481362e-01     0.00000000e+00    
           5.19493401e-01     5.06614625e-01     0.00000000e+00    
           5.20626605e-01     5.08091509e-01     0.00000000e+00    
           5.21338999e-01     5.09811342e-01     0.00000000e+00    
           4.66931671e-01     5.04409373e-01     0.00000000e+00    
           4.68693614e-01     5.04328012e-01     0.00000000e+00    
           4.70421344e-01     5.04682958e-01     0.00000000e+00    
           4.72008497e-01     5.05452335e-01     0.00000000e+00    
           4.73357379e-01     5.06588817e-01     0.00000000e+00    
           4.74384934e-01     5.08022368e-01     0.00000000e+00    
           4.75027919e-01     5.09664834e-01     0.00000000e+00    
           4.75028187e-01     5.13165236e-01     0.00000000e+00    
           4.74385172e-01     5.14807761e-01     0.00000000e+00    
           4.73357558e-01     5.16241372e-01     0.00000000e+00    
           4.72008646e-01     5.17377913e-01     0.00000000e+00    
           4.70421433e-01     5.18147290e-01     0.00000000e+00    
           4.68693614e-01     5.18502235e-01     0.00000000e+00    
           4.66931641e-01     5.18420875e-01     0.00000000e+00    
           5.32303810e-01     5.16964078e-01     0.00000000e+00    
           5.31043947e-01     5.15658796e-01     0.00000000e+00    
           5.30155540e-01     5.14077127e-01     0.00000000e+00    
           5.29696345e-01     5.12322068e-01     0.00000000e+00    
           5.29696345e-01     5.10507941e-01     0.00000000e+00    
           5.30155540e-01     5.08752882e-01     0.00000000e+00    
           5.31043947e-01     5.07171214e-01     0.00000000e+00    
           5.32303810e-01     5.05865932e-01     0.00000000e+00    
           4.68517244e-01     5.32760799e-01     0.00000000e+00    
           4.68509018e-01     5.30844629e-01     0.00000000e+00    
           4.68960851e-01     5.28982460e-01     0.00000000e+00    
           4.69846308e-01     5.27283132e-01     0.00000000e+00    
           4.71113682e-01     5.25845945e-01     0.00000000e+00    
           4.72688884e-01     5.24754822e-01     0.00000000e+00    
           4.74479854e-01     5.24073541e-01     0.00000000e+00    
           4.78284091e-01     5.24073601e-01     0.00000000e+00    
           4.80075032e-01     5.24754822e-01     0.00000000e+00    
           4.81650203e-01     5.25845885e-01     0.00000000e+00    
           4.82917547e-01     5.27283013e-01     0.00000000e+00    
           4.83803004e-01     5.28982282e-01     0.00000000e+00    
           4.84254897e-01     5.30844331e-01     0.00000000e+00    
           4.84246761e-01     5.32760441e-01     0.00000000e+00    
           4.82887864e-01     4.67691004e-01     0.00000000e+00    
           4.81620818e-01     4.69110936e-01     0.00000000e+00    
           4.80051905e-01     4.70188022e-01     0.00000000e+00    
           4.78271484e-01     4.70860153e-01     0.00000000e+00    
           4.76382166e-01     4.71088618e-01     0.00000000e+00    
           4.74492878e-01     4.70860243e-01     0.00000000e+00    
           4.72712427e-01     4.70188200e-01     0.00000000e+00    
           4.71143454e-01     4.69111174e-01     0.00000000e+00    
           4.69876349e-01     4.67691302e-01     0.00000000e+00    
           4.88103986e-01     5.33086061e-01     0.00000000e+00    
           4.87431526e-01     5.31323195e-01     0.00000000e+00    
           4.87231195e-01     5.29447019e-01     0.00000000e+00    
           4.87516224e-01     5.27581930e-01     0.00000000e+00    
           4.88267750e-01     5.25851250e-01     0.00000000e+00    
           4.89436030e-01     5.24369657e-01     0.00000000e+00    
           4.90943670e-01     5.23235261e-01     0.00000000e+00    
           4.92690891e-01     5.22523046e-01     0.00000000e+00    
           4.96432930e-01     5.22523701e-01     0.00000000e+00    
           4.98180002e-01     5.23235798e-01     0.00000000e+00    
           4.99687493e-01     5.24370134e-01     0.00000000e+00    
           5.00855684e-01     5.25851607e-01     0.00000000e+00    
           5.01607120e-01     5.27582109e-01     0.00000000e+00    
           5.01892149e-01     5.29447079e-01     0.00000000e+00    
           5.01691818e-01     5.31323016e-01     0.00000000e+00    
           5.01019418e-01     5.33085763e-01     0.00000000e+00    
           4.98371124e-01     4.67269689e-01     0.00000000e+00    
           4.96539861e-01     4.68064904e-01     0.00000000e+00    
           4.94562000e-01     4.68336672e-01     0.00000000e+00    
           4.92584139e-01     4.68064904e-01     0.00000000e+00    
           4.90752876e-01     4.67269689e-01     0.00000000e+00    
           5.32269001e-01     4.75995690e-01     0.00000000e+00    
           5.31541944e-01     4.77750987e-01     0.00000000e+00    
           5.30385315e-01     4.79258329e-01     0.00000000e+00    
           5.28877974e-01     4.80414927e-01     0.00000000e+00    
[...]
      <PointData>
        <DataArray type="Float32" Name="Displacement" NumberOfComponents="3">
           2.57057697e-03     7.84745498e-04     0.00000000e+00    
           2.54935818e-03     8.79543368e-04     0.00000000e+00    
           8.37140367e-04     8.47866526e-04     0.00000000e+00    
           7.29560386e-04     8.30702775e-04     0.00000000e+00    
           7.98162539e-04     7.58741808e-04     0.00000000e+00    
           3.07956035e-03     8.30702775e-04     0.00000000e+00    
           3.18714045e-03     8.47866526e-04     0.00000000e+00    
           1.60545739e-03     1.14422338e-03     0.00000000e+00    
           1.58378144e-03     1.26599357e-03     0.00000000e+00    
           1.50363042e-03     1.19061547e-03     0.00000000e+00    
           4.08781460e-04     9.09935407e-05     0.00000000e+00    
           4.30457410e-04    -3.07766313e-05     0.00000000e+00    
           2.13467190e-03     1.11146562e-03     0.00000000e+00    
           2.11724523e-03     1.20654609e-03     0.00000000e+00    
           2.01401766e-03     1.14298926e-03     0.00000000e+00    
           9.42245242e-04     3.15460493e-05     0.00000000e+00    
           9.59671859e-04    -6.35343531e-05     0.00000000e+00    
           2.21898151e-03     1.18693461e-04     0.00000000e+00    
           2.19821860e-03     2.50930316e-04     0.00000000e+00    
           3.11581651e-03     9.65656014e-04     0.00000000e+00    
           3.21625941e-03     9.79223521e-04     0.00000000e+00    
           3.14531266e-03     1.11738988e-03     0.00000000e+00    
           8.66259332e-04     9.79223521e-04     0.00000000e+00    
           7.65816541e-04     9.65656014e-04     0.00000000e+00    
           1.54698465e-03     9.05613124e-04     0.00000000e+00    
           1.52454455e-03     1.04939204e-03     0.00000000e+00    
           2.67881155e-03     9.98096075e-04     0.00000000e+00    
           2.65925028e-03     1.12468749e-03     0.00000000e+00    
           1.58066675e-03     3.54274176e-04     0.00000000e+00    
           1.56091258e-03     4.98226611e-04     0.00000000e+00    
           4.94893582e-04     2.98090861e-04     0.00000000e+00    
           4.34712740e-04     2.88437877e-04     0.00000000e+00    
           4.84046992e-04     2.03146832e-04     0.00000000e+00    
           2.78471271e-03     2.88437877e-04     0.00000000e+00    
           2.84489361e-03     2.98090861e-04     0.00000000e+00    
           7.40716059e-04     5.45953750e-04     0.00000000e+00    
           7.19942385e-04     6.31890958e-04     0.00000000e+00    
           9.39192600e-04     2.40992580e-04     0.00000000e+00    
           9.18062986e-04     3.37144942e-04     0.00000000e+00    
           1.80724065e-03     4.71940177e-04     0.00000000e+00    
           1.78717892e-03     6.47255045e-04     0.00000000e+00    
           2.67349510e-03     6.19765022e-04     0.00000000e+00    
           2.65092263e-03     7.20787735e-04     0.00000000e+00    
           1.40692876e-03     6.31646486e-04     0.00000000e+00    
           1.38655957e-03     7.83932279e-04     0.00000000e+00    
           2.23088730e-03     3.65834218e-04     0.00000000e+00    
           2.20793067e-03     5.07689605e-04     0.00000000e+00    
           1.17499998e-03     1.17499998e-03     0.00000000e+00    
           0.00000000e+00     0.00000000e+00     0.00000000e+00    
           2.34999997e-03     0.00000000e+00     0.00000000e+00    
           3.52500007e-03     1.17499998e-03     0.00000000e+00    
           2.58242688e-03     7.89163692e-04     0.00000000e+00    
           2.59310589e-03     7.95978820e-04     0.00000000e+00    
           2.60156486e-03     8.05542455e-04     0.00000000e+00    
           2.60722381e-03     8.17368389e-04     0.00000000e+00    
           2.60934117e-03     8.30092817e-04     0.00000000e+00    
           2.60799727e-03     8.42824578e-04     0.00000000e+00    
           2.60379352e-03     8.54868500e-04     0.00000000e+00    
           2.59628869e-03     8.65529582e-04     0.00000000e+00    
           2.58572376e-03     8.73489131e-04     0.00000000e+00    
           2.57413043e-03     8.78196268e-04     0.00000000e+00    
           2.56178738e-03     8.80289474e-04     0.00000000e+00    
           2.53730640e-03     8.75636062e-04     0.00000000e+00    
           2.52670678e-03     8.69061681e-04     0.00000000e+00    
           2.51801428e-03     8.59791297e-04     0.00000000e+00    
           2.51218793e-03     8.48155818e-04     0.00000000e+00    
           2.51007709e-03     8.35419865e-04     0.00000000e+00    
           2.51186802e-03     8.22459464e-04     0.00000000e+00    
           2.51703477e-03     8.10800819e-04     0.00000000e+00    
           2.52438569e-03     8.01095681e-04     0.00000000e+00    
           2.53359647e-03     7.92633335e-04     0.00000000e+00    
           2.54475581e-03     7.86491903e-04     0.00000000e+00    
           2.55742180e-03     7.83713826e-04     0.00000000e+00    
           7.28210318e-04     8.15144682e-04     0.00000000e+00    
           7.30847067e-04     8.00478039e-04     0.00000000e+00    
           7.36468763e-04     7.86957215e-04     0.00000000e+00    
           7.45437283e-04     7.75210618e-04     0.00000000e+00    
           7.57218571e-04     7.66588433e-04     0.00000000e+00    
           7.70240149e-04     7.61126459e-04     0.00000000e+00    
           7.83917727e-04     7.58571026e-04     0.00000000e+00    
           8.12244427e-04     7.61970703e-04     0.00000000e+00    
           8.25212279e-04     7.68503232e-04     0.00000000e+00    
           8.36009043e-04     7.78217800e-04     0.00000000e+00    
           8.44128954e-04     7.90479884e-04     0.00000000e+00    
           8.48577532e-04     8.04999261e-04     0.00000000e+00    
           8.48466065e-04     8.20831163e-04     0.00000000e+00    
           8.44099326e-04     8.35018873e-04     0.00000000e+00    
           3.17740603e-03     8.59381224e-04     0.00000000e+00    
           3.16471979e-03     8.68026342e-04     0.00000000e+00    
           3.15021025e-03     8.72378820e-04     0.00000000e+00    
           3.13535868e-03     8.73292505e-04     0.00000000e+00    
           3.12095089e-03     8.70728632e-04     0.00000000e+00    
           3.10735172e-03     8.64971778e-04     0.00000000e+00    
           3.09533766e-03     8.56348197e-04     0.00000000e+00    
           3.08577437e-03     8.44804104e-04     0.00000000e+00    
           1.56795303e-03     1.26727845e-03     0.00000000e+00    
           1.55208423e-03     1.26538251e-03     0.00000000e+00    
           1.53698726e-03     1.25995360e-03     0.00000000e+00    
           1.52357749e-03     1.25099858e-03     0.00000000e+00    
           1.51266390e-03     1.23889081e-03     0.00000000e+00    
           1.50535617e-03     1.22402818e-03     0.00000000e+00    
           1.50237908e-03     1.20731490e-03     0.00000000e+00    
           1.50911207e-03     1.17506459e-03     0.00000000e+00    
           1.51726254e-03     1.16114388e-03     0.00000000e+00    
           1.52864191e-03     1.14932843e-03     0.00000000e+00    
           1.54290383e-03     1.14067132e-03     0.00000000e+00    
           1.55873480e-03     1.13648258e-03     0.00000000e+00    
           1.57467206e-03     1.13575847e-03     0.00000000e+00    
           1.59050652e-03     1.13819155e-03     0.00000000e+00    
           4.43539291e-04    -2.14674092e-05     0.00000000e+00    
           4.54130641e-04    -9.11599727e-06     0.00000000e+00    
           4.61041229e-04     5.75247941e-06     0.00000000e+00    
           4.63604287e-04     2.22663439e-05     0.00000000e+00    
           4.62246622e-04     3.82574872e-05     0.00000000e+00    
           4.57454065e-04     5.34901992e-05     0.00000000e+00    
           4.49327868e-04     6.74337716e-05     0.00000000e+00    
           4.37713607e-04     7.87887184e-05     0.00000000e+00    
           4.23634105e-04     8.64941467e-05     0.00000000e+00    
           2.10222346e-03     1.21342402e-03     0.00000000e+00    
           2.08607060e-03     1.21664186e-03     0.00000000e+00    
           2.06926977e-03     1.21622509e-03     0.00000000e+00    
           2.05300585e-03     1.21155218e-03     0.00000000e+00    
           2.03868863e-03     1.20318611e-03     0.00000000e+00    
           2.02673883e-03     1.19163876e-03     0.00000000e+00    
           2.01806845e-03     1.17727951e-03     0.00000000e+00    
           2.01333500e-03     1.16083259e-03     0.00000000e+00    
           2.01982167e-03     1.12594292e-03     0.00000000e+00    
           2.02981476e-03     1.11169054e-03     0.00000000e+00    
           2.04268098e-03     1.10070524e-03     0.00000000e+00    
           2.05757632e-03     1.09279610e-03     0.00000000e+00    
           2.07366585e-03     1.08846719e-03     0.00000000e+00    
           2.09066994e-03     1.08796614e-03     0.00000000e+00    
           2.10729660e-03     1.09182915e-03     0.00000000e+00    
           2.12224550e-03     1.09976646e-03     0.00000000e+00    
           9.69109999e-04    -4.80533017e-05     0.00000000e+00    
           9.73735121e-04    -3.02711596e-05     0.00000000e+00    
           9.72857408e-04    -1.16511610e-05     0.00000000e+00    
           9.66615626e-04     5.65863866e-06     0.00000000e+00    
           9.56146920e-04     2.02754945e-05     0.00000000e+00    
           2.23604497e-03     1.22572223e-04     0.00000000e+00    
           2.25175428e-03     1.30608925e-04     0.00000000e+00    
           2.26492551e-03     1.42761739e-04     0.00000000e+00    
           2.27390509e-03     1.58721727e-04     0.00000000e+00    
           2.27785972e-03     1.76723042e-04     0.00000000e+00    
           2.27680267e-03     1.95042579e-04     0.00000000e+00    
           2.27130600e-03     2.11840248e-04     0.00000000e+00    
           2.26216693e-03     2.27093216e-04     0.00000000e+00    
           2.24937848e-03     2.39645378e-04     0.00000000e+00    
           2.23318744e-03     2.47994845e-04     0.00000000e+00    
           2.21575820e-03     2.51676101e-04     0.00000000e+00    
           2.18122732e-03     2.46130774e-04     0.00000000e+00    
           2.16607423e-03     2.37040687e-04     0.00000000e+00    
           2.15364271e-03     2.24335789e-04     0.00000000e+00    
           2.14514625e-03     2.08836180e-04     0.00000000e+00    
           2.14102352e-03     1.91787723e-04     0.00000000e+00    
           2.14130920e-03     1.74138797e-04     0.00000000e+00    
           2.14639585e-03     1.57015063e-04     0.00000000e+00    
           2.15628254e-03     1.41827899e-04     0.00000000e+00    
           2.16970104e-03     1.30604400e-04     0.00000000e+00    
           2.18501268e-03     1.23101476e-04     0.00000000e+00    
           2.20163725e-03     1.19044649e-04     0.00000000e+00    
           3.22895776e-03     9.95279290e-04     0.00000000e+00    
           3.23727564e-03     1.01417291e-03     0.00000000e+00    
           3.24049080e-03     1.03474734e-03     0.00000000e+00    
           3.23817111e-03     1.05521583e-03     0.00000000e+00    
           3.23062693e-03     1.07454311e-03     0.00000000e+00    
           3.21832905e-03     1.09103799e-03     0.00000000e+00    
           3.20281577e-03     1.10336230e-03     0.00000000e+00    
           3.18505196e-03     1.11195678e-03     0.00000000e+00    
           3.16566206e-03     1.11691421e-03     0.00000000e+00    
           3.12539027e-03     1.11286202e-03     0.00000000e+00    
           3.10723414e-03     1.10368675e-03     0.00000000e+00    
           3.09189945e-03     1.09012506e-03     0.00000000e+00    
           3.08062322e-03     1.07288477e-03     0.00000000e+00    
           3.07394355e-03     1.05323654e-03     0.00000000e+00    
           3.07320734e-03     1.03222253e-03     0.00000000e+00    
           3.07764299e-03     1.01201795e-03     0.00000000e+00    
           3.08664888e-03     9.93831782e-04     0.00000000e+00    
           3.09937703e-03     9.77975782e-04     0.00000000e+00    
           7.82626099e-04     9.58873250e-04     0.00000000e+00    
           8.00322683e-04     9.55844065e-04     0.00000000e+00    
           8.18110886e-04     9.56288190e-04     0.00000000e+00    
           8.35509505e-04     9.60514066e-04     0.00000000e+00    
           8.51875986e-04     9.68030305e-04     0.00000000e+00    
           1.56400399e-03     9.10084636e-04     0.00000000e+00    
           1.57956360e-03     9.18421021e-04     0.00000000e+00    
           1.59255182e-03     9.29872273e-04     0.00000000e+00    
           1.60281360e-03     9.44179134e-04     0.00000000e+00    
           1.60908070e-03     9.60871112e-04     0.00000000e+00    
           1.61044823e-03     9.79385339e-04     0.00000000e+00    
           1.60701550e-03     9.96949151e-04     0.00000000e+00    
           1.60008518e-03     1.01327640e-03     0.00000000e+00    
           1.58963457e-03     1.02770829e-03     0.00000000e+00    
           1.57587684e-03     1.03937765e-03     0.00000000e+00    
           1.55929558e-03     1.04679749e-03     0.00000000e+00    
           1.54207810e-03     1.04978587e-03     0.00000000e+00    
           1.50759437e-03     1.04493322e-03     0.00000000e+00    
           1.49178994e-03     1.03689136e-03     0.00000000e+00    
           1.47833535e-03     1.02497335e-03     0.00000000e+00    
           1.46834401e-03     1.00988406e-03     0.00000000e+00    
           1.46259973e-03     9.92782065e-04     0.00000000e+00    
           1.46156421e-03     9.74833674e-04     0.00000000e+00    
           1.46425958e-03     9.57386626e-04     0.00000000e+00    
           1.47113809e-03     9.40922764e-04     0.00000000e+00    
           1.48219918e-03     9.26603447e-04     0.00000000e+00    
           1.49628927e-03     9.15834680e-04     0.00000000e+00    
           1.51236320e-03     9.08697664e-04     0.00000000e+00    
           1.52953318e-03     9.05260618e-04     0.00000000e+00    
           2.69671972e-03     1.00270112e-03     0.00000000e+00    
           2.71240599e-03     1.01219979e-03     0.00000000e+00    
           2.72470061e-03     1.02593668e-03     0.00000000e+00    
           2.73265527e-03     1.04268175e-03     0.00000000e+00    
           2.73517286e-03     1.06114673e-03     0.00000000e+00    
           2.73214118e-03     1.07973802e-03     0.00000000e+00    
           2.72362446e-03     1.09660672e-03     0.00000000e+00    
           2.71086977e-03     1.10995898e-03     0.00000000e+00    
           2.69503077e-03     1.11934473e-03     0.00000000e+00    
           2.67759920e-03     1.12425711e-03     0.00000000e+00    
           2.64132419e-03     1.11999991e-03     0.00000000e+00    
           2.62552896e-03     1.11023907e-03     0.00000000e+00    
           2.61333236e-03     1.09621068e-03     0.00000000e+00    
           2.60588876e-03     1.07882079e-03     0.00000000e+00    
           2.60400516e-03     1.06058014e-03     0.00000000e+00    
           2.60681054e-03     1.04251457e-03     0.00000000e+00    
           2.61468533e-03     1.02573517e-03     0.00000000e+00    
           2.62771407e-03     1.01231621e-03     0.00000000e+00    
           2.64312746e-03     1.00360636e-03     0.00000000e+00    
           2.66042794e-03     9.98587580e-04     0.00000000e+00    
           1.59934955e-03     3.58636898e-04     0.00000000e+00    
           1.61625142e-03     3.67726170e-04     0.00000000e+00    
           1.63031777e-03     3.81518941e-04     0.00000000e+00    
           1.63959176e-03     3.98430566e-04     0.00000000e+00    
           1.64459448e-03     4.16855793e-04     0.00000000e+00    
           1.64499925e-03     4.36056609e-04     0.00000000e+00    
           1.64003426e-03     4.54844208e-04     0.00000000e+00    
           1.62929960e-03     4.71908454e-04     0.00000000e+00    
           1.61463954e-03     4.84346470e-04     0.00000000e+00    
           1.59804604e-03     4.93072905e-04     0.00000000e+00    
           1.57976360e-03     4.97885514e-04     0.00000000e+00    
           1.54213852e-03     4.94223845e-04     0.00000000e+00    
           1.52494886e-03     4.85313882e-04     0.00000000e+00    
           1.51066820e-03     4.72088577e-04     0.00000000e+00    
           1.50051247e-03     4.55398898e-04     0.00000000e+00    
           1.49536412e-03     4.36373404e-04     0.00000000e+00    
           1.49586459e-03     4.16372815e-04     0.00000000e+00    
           1.50174391e-03     3.97538097e-04     0.00000000e+00    
           1.51245203e-03     3.81144666e-04     0.00000000e+00    
           1.52679998e-03     3.68545036e-04     0.00000000e+00    
           1.54341257e-03     3.59442434e-04     0.00000000e+00    
           1.56174891e-03     3.54665186e-04     0.00000000e+00    
           4.26882529e-04     2.78018473e-04     0.00000000e+00    
           4.22146084e-04     2.65347393e-04     0.00000000e+00    
           4.21179779e-04     2.51844700e-04     0.00000000e+00    
           4.23699501e-04     2.39080691e-04     0.00000000e+00    
           4.28816420e-04     2.27233788e-04     0.00000000e+00    
           4.36648843e-04     2.16860513e-04     0.00000000e+00    
           4.47455066e-04     2.09151825e-04     0.00000000e+00    
           4.59193863e-04     2.05132601e-04     0.00000000e+00    
           4.71339328e-04     2.02962503e-04     0.00000000e+00    
           4.96515888e-04     2.06565339e-04     0.00000000e+00    
           5.07760793e-04     2.13145511e-04     0.00000000e+00    
           5.16834843e-04     2.22633054e-04     0.00000000e+00    
           5.23224648e-04     2.34202089e-04     0.00000000e+00    
           5.26170945e-04     2.46707670e-04     0.00000000e+00    
           5.26037707e-04     2.59620603e-04     0.00000000e+00    
           5.22283022e-04     2.72357749e-04     0.00000000e+00    
           5.15329069e-04     2.83263274e-04     0.00000000e+00    
           5.05817123e-04     2.91995617e-04     0.00000000e+00    
           2.83273053e-03     3.01657739e-04     0.00000000e+00    
           2.82012206e-03     3.02496512e-04     0.00000000e+00    
           2.80741230e-03     3.00847023e-04     0.00000000e+00    
           2.79535423e-03     2.96243496e-04     0.00000000e+00    
           7.51800544e-04     5.48958837e-04     0.00000000e+00    
           7.61830772e-04     5.54754748e-04     0.00000000e+00    
           7.70037586e-04     5.63265581e-04     0.00000000e+00    
           7.75452412e-04     5.74107224e-04     0.00000000e+00    
           7.77198118e-04     5.86570823e-04     0.00000000e+00    
           7.75583903e-04     5.98922954e-04     0.00000000e+00    
           7.70904531e-04     6.09992247e-04     0.00000000e+00    
           7.63628748e-04     6.19613274e-04     0.00000000e+00    
           7.53837172e-04     6.26652502e-04     0.00000000e+00    
           7.42882257e-04     6.30988216e-04     0.00000000e+00    
           7.31524604e-04     6.32631301e-04     0.00000000e+00    
           7.08710460e-04     6.28261070e-04     0.00000000e+00    
           6.98764168e-04     6.21511543e-04     0.00000000e+00    
           6.91177556e-04     6.12331030e-04     0.00000000e+00    
           6.86205982e-04     6.01684558e-04     0.00000000e+00    
           6.84172846e-04     5.89912175e-04     0.00000000e+00    
           6.85544685e-04     5.77998115e-04     0.00000000e+00    
           6.90524583e-04     5.66626491e-04     0.00000000e+00    
           6.98186806e-04     5.57653664e-04     0.00000000e+00    
           7.07748113e-04     5.51031670e-04     0.00000000e+00    