<?xml version="1.0"?>
<VTKFile type="UnstructuredGrid" version="0.1">
  <UnstructuredGrid>
    <Piece NumberOfPoints="1034" NumberOfCells="1614">
      <Points>
        <DataArray type="Float32" NumberOfComponents="3">
           5.21582007e-01     5.11657000e-01     0.00000000e+00    
           5.07319987e-01     5.11657000e-01     0.00000000e+00    
           4.65243995e-01     5.17907977e-01     0.00000000e+00    
           4.65243995e-01     5.04921973e-01     0.00000000e+00    
           4.75246996e-01     5.11415005e-01     0.00000000e+00    
           5.33852994e-01     5.04921973e-01     0.00000000e+00    
           5.33852994e-01     5.17907977e-01     0.00000000e+00    
           4.83779997e-01     5.34618974e-01     0.00000000e+00    
           4.68984991e-01     5.34618974e-01     0.00000000e+00    
           4.76381987e-01     5.23841977e-01     0.00000000e+00    
           4.68984991e-01     4.66010004e-01     0.00000000e+00    
           4.83779997e-01     4.66010004e-01     0.00000000e+00    
           4.99920011e-01     5.34618974e-01     0.00000000e+00    
           4.89203990e-01     5.34618974e-01     0.00000000e+00    
           4.94562000e-01     5.22280991e-01     0.00000000e+00    
           4.89203990e-01     4.66010004e-01     0.00000000e+00    
           4.99920011e-01     4.66010004e-01     0.00000000e+00    
           5.32517016e-01     4.74112004e-01     0.00000000e+00    
           5.17961025e-01     4.74112004e-01     0.00000000e+00    
           5.33852994e-01     5.19801974e-01     0.00000000e+00    
           5.33852994e-01     5.29603004e-01     0.00000000e+00    
           5.19536972e-01     5.24702013e-01     0.00000000e+00    
           4.65243995e-01     5.29603004e-01     0.00000000e+00    
           4.65243995e-01     5.19801974e-01     0.00000000e+00    
           4.92487997e-01     5.17117977e-01     0.00000000e+00    
           4.76904988e-01     5.17117977e-01     0.00000000e+00    
           5.17996013e-01     5.27033985e-01     0.00000000e+00    
           5.04473984e-01     5.27033985e-01     0.00000000e+00    
           5.08446991e-01     4.83435005e-01     0.00000000e+00    
           4.94414002e-01     4.83435005e-01     0.00000000e+00    
           4.65243995e-01     4.83101994e-01     0.00000000e+00    
           4.65243995e-01     4.74415004e-01     0.00000000e+00    
           4.78336990e-01     4.78758007e-01     0.00000000e+00    
           5.33852994e-01     4.74415004e-01     0.00000000e+00    
           5.33852994e-01     4.83101994e-01     0.00000000e+00    
           4.80668008e-01     4.95810986e-01     0.00000000e+00    
           4.66084987e-01     4.95810986e-01     0.00000000e+00    
           4.93930012e-01     4.79214013e-01     0.00000000e+00    
           4.78967011e-01     4.79214013e-01     0.00000000e+00    
           5.09284973e-01     4.97658014e-01     0.00000000e+00    
           4.95503992e-01     4.97658014e-01     0.00000000e+00    
           5.33011973e-01     5.01751006e-01     0.00000000e+00    
           5.17829001e-01     5.01751006e-01     0.00000000e+00    
           4.95451003e-01     5.00564992e-01     0.00000000e+00    
           4.80922014e-01     5.00564992e-01     0.00000000e+00    
           5.25367022e-01     4.88312006e-01     0.00000000e+00    
           5.09521008e-01     4.88312006e-01     0.00000000e+00    
           4.65243995e-01     5.34618974e-01     0.00000000e+00    
           4.65243995e-01     4.66010004e-01     0.00000000e+00    
           5.33852994e-01     4.66010004e-01     0.00000000e+00    
           5.33852994e-01     5.34618974e-01     0.00000000e+00    
           5.21338999e-01     5.13502657e-01     0.00000000e+00    
           5.20626605e-01     5.15222490e-01     0.00000000e+00    
           5.19493401e-01     5.16699374e-01     0.00000000e+00    
           5.18016517e-01     5.17832637e-01     0.00000000e+00    
           5.16296625e-01     5.18545032e-01     0.00000000e+00    
           5.14451027e-01     5.18787980e-01     0.00000000e+00    
           5.12605369e-01     5.18545032e-01     0.00000000e+00    
           5.10885477e-01     5.17832637e-01     0.00000000e+00    
           5.09408593e-01     5.16699374e-01     0.00000000e+00    
           5.08275390e-01     5.15222490e-01     0.00000000e+00    
           5.07562995e-01     5.13502657e-01     0.00000000e+00    
           5.07562995e-01     5.09811342e-01     0.00000000e+00    
           5.08275390e-01     5.08091509e-01     0.00000000e+00    
           5.09408593e-01     5.06614625e-01     0.00000000e+00    
           5.10885477e-01     5.05481362e-01     0.00000000e+00    
           5.12605369e-01     5.04768968e-01     0.00000000e+00    
           5.14451027e-01     5.04526019e-01     0.00000000e+00    
           5.16296625e-01     5.04768968e-01     0.00000000e+00    
           5.18016517e-01     5.05481362e-01     0.00000000e+00    
           5.19493401e-01     5.06614625e-01     0.00000000e+00    
           5.20626605e-01     5.08091509e-01     0.00000000e+00    
           5.21338999e-01     5.09811342e-01     0.00000000e+00    
           4.66931671e-01     5.04409373e-01     0.00000000e+00    
           4.68693614e-01     5.04328012e-01     0.00000000e+00    
           4.70421344e-01     5.04682958e-01     0.00000000e+00    
           4.72008497e-01     5.05452335e-01     0.00000000e+00    
           4.73357379e-01     5.06588817e-01     0.00000000e+00    
           4.74384934e-01     5.08022368e-01     0.00000000e+00    
           4.75027919e-01     5.09664834e-01     0.00000000e+00    
           4.75028187e-01     5.13165236e-01     0.00000000e+00    
           4.74385172e-01     5.14807761e-01     0.00000000e+00    
           4.73357558e-01     5.16241372e-01     0.00000000e+00    
           4.72008646e-01     5.17377913e-01     0.00000000e+00    
           4.70421433e-01     5.18147290e-01     0.00000000e+00    
           4.68693614e-01     5.18502235e-01     0.00000000e+00    
           4.66931641e-01     5.18420875e-01     0.00000000e+00    
           5.32303810e-01     5.16964078e-01     0.00000000e+00    
           5.31043947e-01     5.15658796e-01     0.00000000e+00    
           5.30155540e-01     5.14077127e-01     0.00000000e+00    
           5.29696345e-01     5.12322068e-01     0.00000000e+00    
           5.29696345e-01     5.10507941e-01     0.00000000e+00    
           5.30155540e-01     5.08752882e-01     0.00000000e+00    
           5.31043947e-01     5.07171214e-01     0.00000000e+00    
           5.32303810e-01     5.05865932e-01     0.00000000e+00    
           4.68517244e-01     5.32760799e-01     0.00000000e+00    
           4.68509018e-01     5.30844629e-01     0.00000000e+00    
           4.68960851e-01     5.28982460e-01     0.00000000e+00    
           4.69846308e-01     5.27283132e-01     0.00000000e+00    
           4.71113682e-01     5.25845945e-01     0.00000000e+00    
           4.72688884e-01     5.24754822e-01     0.00000000e+00    
           4.74479854e-01     5.24073541e-01     0.00000000e+00    
           4.78284091e-01     5.24073601e-01     0.00000000e+00    
           4.80075032e-01     5.24754822e-01     0.00000000e+00    
           4.81650203e-01     5.25845885e-01     0.00000000e+00    
           4.82917547e-01     5.27283013e-01     0.00000000e+00    
           4.83803004e-01     5.28982282e-01     0.00000000e+00    
           4.84254897e-01     5.30844331e-01     0.00000000e+00    
           4.84246761e-01     5.32760441e-01     0.00000000e+00    
           4.82887864e-01     4.67691004e-01     0.00000000e+00    
           4.81620818e-01     4.69110936e-01     0.00000000e+00    
           4.80051905e-01     4.70188022e-01     0.00000000e+00    
           4.78271484e-01     4.70860153e-01     0.00000000e+00    
           4.76382166e-01     4.71088618e-01     0.00000000e+00    
           4.74492878e-01     4.70860243e-01     0.00000000e+00    
           4.72712427e-01     4.70188200e-01     0.00000000e+00    
           4.71143454e-01     4.69111174e-01     0.00000000e+00    
           4.69876349e-01     4.67691302e-01     0.00000000e+00    
           4.88103986e-01     5.33086061e-01     0.00000000e+00    
           4.87431526e-01     5.31323195e-01     0.00000000e+00    
           4.87231195e-01     5.29447019e-01     0.00000000e+00    
           4.87516224e-01     5.27581930e-01     0.00000000e+00    
           4.88267750e-01     5.25851250e-01     0.00000000e+00    
           4.89436030e-01     5.24369657e-01     0.00000000e+00    
           4.90943670e-01     5.23235261e-01     0.00000000e+00    
           4.92690891e-01     5.22523046e-01     0.00000000e+00    
           4.96432930e-01     5.22523701e-01     0.00000000e+00    
           4.98180002e-01     5.23235798e-01     0.00000000e+00    
           4.99687493e-01     5.24370134e-01     0.00000000e+00    
           5.00855684e-01     5.25851607e-01     0.00000000e+00    
           5.01607120e-01     5.27582109e-01     0.00000000e+00    
           5.01892149e-01     5.29447079e-01     0.00000000e+00    
           5.01691818e-01     5.31323016e-01     0.00000000e+00    
           5.01019418e-01     5.33085763e-01     0.00000000e+00    
           4.98371124e-01     4.67269689e-01     0.00000000e+00    
           4.96539861e-01     4.68064904e-01     0.00000000e+00    
           4.94562000e-01     4.68336672e-01     0.00000000e+00    
           4.92584139e-01     4.68064904e-01     0.00000000e+00    
           4.90752876e-01     4.67269689e-01     0.00000000e+00    
           5.32269001e-01     4.75995690e-01     0.00000000e+00    
           5.31541944e-01     4.77750987e-01     0.00000000e+00    
           5.30385315e-01     4.79258329e-01     0.00000000e+00    
           5.28877974e-01     4.80414927e-01     0.00000000e+00    
[...]
      <PointData>
        <DataArray type="Float32" Name="Displacement" NumberOfComponents="3">
           2.06833053e-03     6.22008287e-04     0.00000000e+00    
           2.04717228e-03     6.96178875e-04     0.00000000e+00    
           6.77502132e-04     6.87924912e-04     0.00000000e+00    
           5.80852618e-04     6.71179907e-04     0.00000000e+00    
           6.44394895e-04     6.07550552e-04     0.00000000e+00    
           2.48085265e-03     6.71179907e-04     0.00000000e+00    
           2.57750205e-03     6.87924912e-04     0.00000000e+00    
           1.24901836e-03     8.94894183e-04     0.00000000e+00    
           1.22736953e-03     1.00901269e-03     0.00000000e+00    
           1.15263648e-03     9.37454985e-04     0.00000000e+00    
           2.77369516e-04     5.90127165e-05     0.00000000e+00    
           2.99018371e-04    -5.51058329e-05     0.00000000e+00    
           1.67328282e-03     8.66742630e-04     0.00000000e+00    
           1.65550422e-03     9.39125486e-04     0.00000000e+00    
           1.57761259e-03     8.87940230e-04     0.00000000e+00    
           7.05504208e-04    -1.08744935e-05     0.00000000e+00    
           7.23282865e-04    -8.32573860e-05     0.00000000e+00    
           1.79003435e-03     9.87508101e-05     0.00000000e+00    
           1.76927529e-03     2.00037350e-04     0.00000000e+00    
           2.51969555e-03     7.84337695e-04     0.00000000e+00    
           2.59685167e-03     7.97682267e-04     0.00000000e+00    
           2.53758393e-03     9.01450694e-04     0.00000000e+00    
           6.96851639e-04     7.97682267e-04     0.00000000e+00    
           6.19695638e-04     7.84337695e-04     0.00000000e+00    
           1.18991046e-03     6.96151517e-04     0.00000000e+00    
           1.16764382e-03     8.18089815e-04     0.00000000e+00    
           2.14820472e-03     7.96611072e-04     0.00000000e+00    
           2.12857965e-03     8.84557376e-04     0.00000000e+00    
           1.24269119e-03     2.66063551e-04     0.00000000e+00    
           1.22292829e-03     3.80644313e-04     0.00000000e+00    
           3.67843284e-04     2.33441911e-04     0.00000000e+00    
           3.10640637e-04     2.23972733e-04     0.00000000e+00    
           3.58408433e-04     1.43875644e-04     0.00000000e+00    
           2.21064058e-03     2.23972733e-04     0.00000000e+00    
           2.26784335e-03     2.33441911e-04     0.00000000e+00    
           5.80750173e-04     4.20218770e-04     0.00000000e+00    
           5.60095708e-04     5.05931210e-04     0.00000000e+00    
           7.09270535e-04     1.63822100e-04     0.00000000e+00    
           6.88129105e-04     2.47996184e-04     0.00000000e+00    
           1.42487220e-03     3.57048237e-04     0.00000000e+00    
           1.40468765e-03     4.94930602e-04     0.00000000e+00    
           2.14411458e-03     4.95964196e-04     0.00000000e+00    
           2.12151697e-03     5.74646809e-04     0.00000000e+00    
           1.07880752e-03     4.78671893e-04     0.00000000e+00    
           1.05830561e-03     5.92467957e-04     0.00000000e+00    
           1.78678008e-03     2.96898914e-04     0.00000000e+00    
           1.76376814e-03     3.97309370e-04     0.00000000e+00    
           9.50000016e-04     9.50000016e-04     0.00000000e+00    
           0.00000000e+00     0.00000000e+00     0.00000000e+00    
           1.90000003e-03     0.00000000e+00     0.00000000e+00    
           2.85000005e-03     9.50000016e-04     0.00000000e+00    
           2.07754364e-03     6.25996327e-04     0.00000000e+00    
           2.08581402e-03     6.31688046e-04     0.00000000e+00    
           2.09225505e-03     6.39477046e-04     0.00000000e+00    
           2.09643831e-03     6.49104943e-04     0.00000000e+00    
           2.09760386e-03     6.59499201e-04     0.00000000e+00    
           2.09577871e-03     6.69676287e-04     0.00000000e+00    
           2.09188205e-03     6.79056044e-04     0.00000000e+00    
           2.08540051e-03     6.87206455e-04     0.00000000e+00    
           2.07637437e-03     6.92965172e-04     0.00000000e+00    
           2.06684857e-03     6.96020550e-04     0.00000000e+00    
           2.05699331e-03     6.97139069e-04     0.00000000e+00    
           2.03772145e-03     6.92766567e-04     0.00000000e+00    
           2.02947971e-03     6.87363849e-04     0.00000000e+00    
           2.02280097e-03     6.79889286e-04     0.00000000e+00    
           2.01840396e-03     6.70528098e-04     0.00000000e+00    
           2.01717019e-03     6.60167949e-04     0.00000000e+00    
           2.01934273e-03     6.49697671e-04     0.00000000e+00    
           2.02435558e-03     6.40588114e-04     0.00000000e+00    
           2.03082291e-03     6.33213378e-04     0.00000000e+00    
           2.03847769e-03     6.26794295e-04     0.00000000e+00    
           2.04759394e-03     6.22255495e-04     0.00000000e+00    
           2.05784547e-03     6.20525796e-04     0.00000000e+00    
           5.79820015e-04     6.57019438e-04     0.00000000e+00    
           5.82464680e-04     6.43782143e-04     0.00000000e+00    
           5.87740913e-04     6.31628442e-04     0.00000000e+00    
           5.96140453e-04     6.21173414e-04     0.00000000e+00    
           6.07135531e-04     6.13707234e-04     0.00000000e+00    
           6.19111641e-04     6.09065697e-04     0.00000000e+00    
           6.31579489e-04     6.07033318e-04     0.00000000e+00    
           6.56846212e-04     6.10769086e-04     0.00000000e+00    
           6.68358291e-04     6.16841251e-04     0.00000000e+00    
           6.77910866e-04     6.25771761e-04     0.00000000e+00    
           6.85028208e-04     6.36876794e-04     0.00000000e+00    
           6.88766420e-04     6.49900234e-04     0.00000000e+00    
           6.88424218e-04     6.63964835e-04     0.00000000e+00    
           6.84054045e-04     6.76584430e-04     0.00000000e+00    
           2.56861071e-03     6.98072894e-04     0.00000000e+00    
           2.55709258e-03     7.05571263e-04     0.00000000e+00    
           2.54402775e-03     7.08966923e-04     0.00000000e+00    
           2.53080367e-03     7.09502958e-04     0.00000000e+00    
           2.51792907e-03     7.07135419e-04     0.00000000e+00    
           2.50573433e-03     7.01952842e-04     0.00000000e+00    
           2.49496126e-03     6.94221351e-04     0.00000000e+00    
           2.48640659e-03     6.83854450e-04     0.00000000e+00    
           1.21239736e-03     1.00998103e-03     0.00000000e+00    
           1.19754521e-03     1.00794330e-03     0.00000000e+00    
           1.18344219e-03     1.00264919e-03     0.00000000e+00    
           1.17090216e-03     9.94033879e-04     0.00000000e+00    
           1.16078556e-03     9.82544036e-04     0.00000000e+00    
           1.15403556e-03     9.68673965e-04     0.00000000e+00    
           1.15133997e-03     9.53137118e-04     0.00000000e+00    
           1.15805876e-03     9.22865176e-04     0.00000000e+00    
           1.16585707e-03     9.09884868e-04     0.00000000e+00    
           1.17666542e-03     8.98905098e-04     0.00000000e+00    
           1.19021104e-03     8.90982803e-04     0.00000000e+00    
           1.20513909e-03     8.87309143e-04     0.00000000e+00    
           1.22010102e-03     8.86756403e-04     0.00000000e+00    
           1.23498146e-03     8.89126153e-04     0.00000000e+00    
           3.11260490e-04    -4.62728458e-05     0.00000000e+00    
           3.21148487e-04    -3.46144334e-05     0.00000000e+00    
           3.27568006e-04    -2.06412187e-05     0.00000000e+00    
           3.29928444e-04    -5.12583574e-06     0.00000000e+00    
           3.28509981e-04     9.94321726e-06     0.00000000e+00    
           3.23894754e-04     2.42390252e-05     0.00000000e+00    
           3.16157937e-04     3.73140720e-05     0.00000000e+00    
           3.05023743e-04     4.78839574e-05     0.00000000e+00    
           2.91505014e-04     5.49409233e-05     0.00000000e+00    
           1.64371473e-03     9.43768595e-04     0.00000000e+00    
           1.63122767e-03     9.45763139e-04     0.00000000e+00    
           1.61827577e-03     9.45125823e-04     0.00000000e+00    
           1.60582410e-03     9.41214093e-04     0.00000000e+00    
           1.59501738e-03     9.34541167e-04     0.00000000e+00    
           1.58611231e-03     9.25514847e-04     0.00000000e+00    
           1.57977338e-03     9.14415403e-04     0.00000000e+00    
           1.57645531e-03     9.01792664e-04     0.00000000e+00    
           1.58300973e-03     8.74840713e-04     0.00000000e+00    
           1.59169629e-03     8.64238362e-04     0.00000000e+00    
           1.60226843e-03     8.56382074e-04     0.00000000e+00    
           1.61403860e-03     8.50763638e-04     0.00000000e+00    
           1.62658945e-03     8.47659365e-04     0.00000000e+00    
           1.63981330e-03     8.47541494e-04     0.00000000e+00    
           1.65262690e-03     8.50845245e-04     0.00000000e+00    
           1.66399695e-03     8.57339008e-04     0.00000000e+00    
           7.30110507e-04    -7.10138556e-05     0.00000000e+00    
           7.33061868e-04    -5.70706979e-05     0.00000000e+00    
           7.31593638e-04    -4.26260340e-05     0.00000000e+00    
           7.25800230e-04    -2.95200625e-05     0.00000000e+00    
           7.16827577e-04    -1.88151680e-05     0.00000000e+00    
           1.80309929e-03     1.02080434e-04     0.00000000e+00    
           1.81507773e-03     1.08545741e-04     0.00000000e+00    
           1.82505825e-03     1.18178425e-04     0.00000000e+00    
           1.83157588e-03     1.30926986e-04     0.00000000e+00    
           1.83392223e-03     1.45180253e-04     0.00000000e+00    
           1.83225400e-03     1.59453906e-04     0.00000000e+00    
           1.82735873e-03     1.72314336e-04     0.00000000e+00    
           1.81982643e-03     1.83901473e-04     0.00000000e+00    
           1.80955662e-03     1.93303160e-04     0.00000000e+00    
           1.79656874e-03     1.99167655e-04     0.00000000e+00    
           1.78283686e-03     2.01274597e-04     0.00000000e+00    
           1.75625738e-03     1.95828237e-04     0.00000000e+00    
           1.74477545e-03     1.88367485e-04     0.00000000e+00    
           1.73545489e-03     1.78199407e-04     0.00000000e+00    
           1.72933307e-03     1.65877442e-04     0.00000000e+00    
           1.72677310e-03     1.52474473e-04     0.00000000e+00    
           1.72764517e-03     1.38793839e-04     0.00000000e+00    
           1.73221726e-03     1.25691280e-04     0.00000000e+00    
           1.74057635e-03     1.14248229e-04     0.00000000e+00    
           1.75158458e-03     1.06265972e-04     0.00000000e+00    
           1.76372821e-03     1.01161713e-04     0.00000000e+00    
           1.77671236e-03     9.85742954e-05     0.00000000e+00    
           2.60627922e-03     8.10347730e-04     0.00000000e+00    
           2.61219824e-03     8.25181836e-04     0.00000000e+00    
           2.61398358e-03     8.41245521e-04     0.00000000e+00    
           2.61142617e-03     8.56912346e-04     0.00000000e+00    
           2.60490156e-03     8.71474796e-04     0.00000000e+00    
           2.59469380e-03     8.83573084e-04     0.00000000e+00    
           2.58218590e-03     8.92136595e-04     0.00000000e+00    
           2.56831502e-03     8.97981343e-04     0.00000000e+00    
           2.55328626e-03     9.01410705e-04     0.00000000e+00    
           2.52231350e-03     8.97668768e-04     0.00000000e+00    
           2.50849407e-03     8.90382507e-04     0.00000000e+00    
           2.49690912e-03     8.79772706e-04     0.00000000e+00    
           2.48853257e-03     8.66341696e-04     0.00000000e+00    
           2.48376117e-03     8.50987388e-04     0.00000000e+00    
           2.48396746e-03     8.34509556e-04     0.00000000e+00    
           2.48833839e-03     8.18891858e-04     0.00000000e+00    
           2.49616895e-03     8.05105024e-04     0.00000000e+00    
           2.50655063e-03     7.93277286e-04     0.00000000e+00    
           6.32971176e-04     7.79851805e-04     0.00000000e+00    
           6.46679546e-04     7.78203772e-04     0.00000000e+00    
           6.60328311e-04     7.79034919e-04     0.00000000e+00    
           6.73553324e-04     7.82734423e-04     0.00000000e+00    
           6.85990381e-04     7.88795704e-04     0.00000000e+00    
           1.20442326e-03     7.00183387e-04     0.00000000e+00    
           1.21764420e-03     7.07464351e-04     0.00000000e+00    
           1.22861611e-03     7.17372401e-04     0.00000000e+00    
           1.23723783e-03     7.29699153e-04     0.00000000e+00    
           1.24236918e-03     7.44060555e-04     0.00000000e+00    
           1.24317815e-03     7.60075287e-04     0.00000000e+00    
           1.23967440e-03     7.75180990e-04     0.00000000e+00    
           1.23327842e-03     7.89042620e-04     0.00000000e+00    
           1.22399756e-03     8.01183283e-04     0.00000000e+00    
           1.21191645e-03     8.10868165e-04     0.00000000e+00    
           1.19742146e-03     8.16681713e-04     0.00000000e+00    
           1.18261541e-03     8.18725617e-04     0.00000000e+00    
           1.15319004e-03     8.14030122e-04     0.00000000e+00    
           1.13978120e-03     8.06989556e-04     0.00000000e+00    
           1.12839579e-03     7.96692097e-04     0.00000000e+00    
           1.11998699e-03     7.83645781e-04     0.00000000e+00    
           1.11537450e-03     7.68775644e-04     0.00000000e+00    
           1.11502688e-03     7.53257598e-04     0.00000000e+00    
           1.11773261e-03     7.38389383e-04     0.00000000e+00    
           1.12394232e-03     7.24448124e-04     0.00000000e+00    
           1.13381888e-03     7.12451467e-04     0.00000000e+00    
           1.14631443e-03     7.03714555e-04     0.00000000e+00    
           1.16028066e-03     6.98142278e-04     0.00000000e+00    
           1.17501523e-03     6.95604773e-04     0.00000000e+00    
           2.16069794e-03     8.00290203e-04     0.00000000e+00    
           2.17146869e-03     8.07339035e-04     0.00000000e+00    
           2.17970484e-03     8.17323977e-04     0.00000000e+00    
           2.18480593e-03     8.29334895e-04     0.00000000e+00    
           2.18581106e-03     8.42544658e-04     0.00000000e+00    
           2.18262896e-03     8.55718914e-04     0.00000000e+00    
           2.17541168e-03     8.67187046e-04     0.00000000e+00    
           2.16560578e-03     8.75822967e-04     0.00000000e+00    
           2.15399475e-03     8.81688902e-04     0.00000000e+00    
           2.14155577e-03     8.84670415e-04     0.00000000e+00    
           2.11601146e-03     8.80830397e-04     0.00000000e+00    
           2.10511079e-03     8.73458048e-04     0.00000000e+00    
           2.09698547e-03     8.63040448e-04     0.00000000e+00    
           2.09253002e-03     8.50185170e-04     0.00000000e+00    
           2.09234050e-03     8.37098341e-04     0.00000000e+00    
           2.09524389e-03     8.24489223e-04     0.00000000e+00    
           2.10158154e-03     8.13037448e-04     0.00000000e+00    
           2.11165543e-03     8.04367126e-04     0.00000000e+00    
           2.12290953e-03     7.99281406e-04     0.00000000e+00    
           2.13523256e-03     7.96425855e-04     0.00000000e+00    
           1.25769549e-03     2.69730139e-04     0.00000000e+00    
           1.27115718e-03     2.77162821e-04     0.00000000e+00    
           1.28237205e-03     2.88486626e-04     0.00000000e+00    
           1.28941250e-03     3.02583794e-04     0.00000000e+00    
           1.29288784e-03     3.17612954e-04     0.00000000e+00    
           1.29272277e-03     3.33041913e-04     0.00000000e+00    
           1.28823030e-03     3.47959518e-04     0.00000000e+00    
           1.27889391e-03     3.61323473e-04     0.00000000e+00    
           1.26644876e-03     3.70639027e-04     0.00000000e+00    
           1.25289406e-03     3.77025164e-04     0.00000000e+00    
           1.23810279e-03     3.80576501e-04     0.00000000e+00    
           1.20782328e-03     3.77281074e-04     0.00000000e+00    
           1.19407976e-03     3.69934860e-04     0.00000000e+00    
           1.18275452e-03     3.59106634e-04     0.00000000e+00    
           1.17485353e-03     3.45511537e-04     0.00000000e+00    
           1.17110787e-03     3.30070121e-04     0.00000000e+00    
           1.17209356e-03     3.13869532e-04     0.00000000e+00    
           1.17757858e-03     2.98812782e-04     0.00000000e+00    
           1.18699670e-03     2.86062830e-04     0.00000000e+00    
           1.19911262e-03     2.76599952e-04     0.00000000e+00    
           1.21262774e-03     2.69779819e-04     0.00000000e+00    
           1.22744730e-03     2.66239571e-04     0.00000000e+00    
           3.03262117e-04     2.14054948e-04     0.00000000e+00    
           2.98834173e-04     2.02076801e-04     0.00000000e+00    
           2.98040337e-04     1.89262675e-04     0.00000000e+00    
           3.00567248e-04     1.77117414e-04     0.00000000e+00    
           3.05525144e-04     1.65907783e-04     0.00000000e+00    
           3.13067721e-04     1.56149908e-04     0.00000000e+00    
           3.23504821e-04     1.49066414e-04     0.00000000e+00    
           3.34782730e-04     1.45527578e-04     0.00000000e+00    
           3.46331450e-04     1.43602112e-04     0.00000000e+00    
           3.70233727e-04     1.47207495e-04     0.00000000e+00    
           3.80861980e-04     1.53489673e-04     0.00000000e+00    
           3.89401219e-04     1.62523575e-04     0.00000000e+00    
           3.95359908e-04     1.73502820e-04     0.00000000e+00    
           3.98103322e-04     1.85269964e-04     0.00000000e+00    
           3.98030650e-04     1.97419242e-04     0.00000000e+00    
           3.94486269e-04     2.09438047e-04     0.00000000e+00    
           3.87732696e-04     2.19783047e-04     0.00000000e+00    
           3.78379162e-04     2.27933531e-04     0.00000000e+00    
           2.25625094e-03     2.36656837e-04     0.00000000e+00    
           2.24423991e-03     2.37424669e-04     0.00000000e+00    
           2.23216088e-03     2.35833271e-04     0.00000000e+00    
           2.22071586e-03     2.31428683e-04     0.00000000e+00    
           5.91944787e-04     4.23132675e-04     0.00000000e+00    
           6.02065062e-04     4.28885396e-04     0.00000000e+00    
           6.10375893e-04     4.37438866e-04     0.00000000e+00    
           6.15832803e-04     4.48239705e-04     0.00000000e+00    
           6.17693702e-04     4.60555399e-04     0.00000000e+00    
           6.16150908e-04     4.72946587e-04     0.00000000e+00    
           6.11534982e-04     4.84128948e-04     0.00000000e+00    
           6.04162982e-04     4.93831933e-04     0.00000000e+00    
           5.94183046e-04     5.00822440e-04     0.00000000e+00    
           5.83146757e-04     5.05096104e-04     0.00000000e+00    
           5.71726763e-04     5.06715907e-04     0.00000000e+00    
           5.48843876e-04     5.02271811e-04     0.00000000e+00    
           5.38905908e-04     4.95513843e-04     0.00000000e+00    
           5.31328726e-04     4.86380741e-04     0.00000000e+00    
           5.26305637e-04     4.75798704e-04     0.00000000e+00    
           5.24149917e-04     4.64122480e-04     0.00000000e+00    
           5.25352545e-04     4.52252192e-04     0.00000000e+00    
           5.30124002e-04     4.40833624e-04     0.00000000e+00    
           5.37853397e-04     4.31734283e-04     0.00000000e+00    
           5.47599688e-04     4.25151375e-04     0.00000000e+00    