<?xml version="1.0"?>
<VTKFile type="UnstructuredGrid" version="0.1">
  <UnstructuredGrid>
    <Piece NumberOfPoints="1034" NumberOfCells="1614">
      <Points>
        <DataArray type="Float32" NumberOfComponents="3">
           5.21582007e-01     5.11657000e-01     0.00000000e+00    
           5.07319987e-01     5.11657000e-01     0.00000000e+00    
           4.65243995e-01     5.17907977e-01     0.00000000e+00    
           4.65243995e-01     5.04921973e-01     0.00000000e+00    
           4.75246996e-01     5.11415005e-01     0.00000000e+00    
           5.33852994e-01     5.04921973e-01     0.00000000e+00    
           5.33852994e-01     5.17907977e-01     0.00000000e+00    
           4.83779997e-01     5.34618974e-01     0.00000000e+00    
           4.68984991e-01     5.34618974e-01     0.00000000e+00    
           4.76381987e-01     5.23841977e-01     0.00000000e+00    
           4.68984991e-01     4.66010004e-01     0.00000000e+00    
           4.83779997e-01     4.66010004e-01     0.00000000e+00    
           4.99920011e-01     5.34618974e-01     0.00000000e+00    
           4.89203990e-01     5.34618974e-01     0.00000000e+00    
           4.94562000e-01     5.22280991e-01     0.00000000e+00    
           4.89203990e-01     4.66010004e-01     0.00000000e+00    
           4.99920011e-01     4.66010004e-01     0.00000000e+00    
           5.32517016e-01     4.74112004e-01     0.00000000e+00    
           5.17961025e-01     4.74112004e-01     0.00000000e+00    
           5.33852994e-01     5.19801974e-01     0.00000000e+00    
           5.33852994e-01     5.29603004e-01     0.00000000e+00    
           5.19536972e-01     5.24702013e-01     0.00000000e+00    
           4.65243995e-01     5.29603004e-01     0.00000000e+00    
           4.65243995e-01     5.19801974e-01     0.00000000e+00    
           4.92487997e-01     5.17117977e-01     0.00000000e+00    
           4.76904988e-01     5.17117977e-01     0.00000000e+00    
           5.17996013e-01     5.27033985e-01     0.00000000e+00    
           5.04473984e-01     5.27033985e-01     0.00000000e+00    
           5.08446991e-01     4.83435005e-01     0.00000000e+00    
           4.94414002e-01     4.83435005e-01     0.00000000e+00    
           4.65243995e-01     4.83101994e-01     0.00000000e+00    
           4.65243995e-01     4.74415004e-01     0.00000000e+00    
           4.78336990e-01     4.78758007e-01     0.00000000e+00    
           5.33852994e-01     4.74415004e-01     0.00000000e+00    
           5.33852994e-01     4.83101994e-01     0.00000000e+00    
           4.80668008e-01     4.95810986e-01     0.00000000e+00    
           4.66084987e-01     4.95810986e-01     0.00000000e+00    
           4.93930012e-01     4.79214013e-01     0.00000000e+00    
           4.78967011e-01     4.79214013e-01     0.00000000e+00    
           5.09284973e-01     4.97658014e-01     0.00000000e+00    
           4.95503992e-01     4.97658014e-01     0.00000000e+00    
           5.33011973e-01     5.01751006e-01     0.00000000e+00    
           5.17829001e-01     5.01751006e-01     0.00000000e+00    
           4.95451003e-01     5.00564992e-01     0.00000000e+00    
           4.80922014e-01     5.00564992e-01     0.00000000e+00    
           5.25367022e-01     4.88312006e-01     0.00000000e+00    
           5.09521008e-01     4.88312006e-01     0.00000000e+00    
           4.65243995e-01     5.34618974e-01     0.00000000e+00    
           4.65243995e-01     4.66010004e-01     0.00000000e+00    
           5.33852994e-01     4.66010004e-01     0.00000000e+00    
           5.33852994e-01     5.34618974e-01     0.00000000e+00    
           5.21338999e-01     5.13502657e-01     0.00000000e+00    
           5.20626605e-01     5.15222490e-01     0.00000000e+00    
           5.19493401e-01     5.16699374e-01     0.00000000e+00    
           5.18016517e-01     5.17832637e-01     0.00000000e+00    
           5.16296625e-01     5.18545032e-01     0.00000000e+00    
           5.14451027e-01     5.18787980e-01     0.00000000e+00    
           5.12605369e-01     5.18545032e-01     0.00000000e+00    
           5.10885477e-01     5.17832637e-01     0.00000000e+00    
           5.09408593e-01     5.16699374e-01     0.00000000e+00    
           5.08275390e-01     5.15222490e-01     0.00000000e+00    
           5.07562995e-01     5.13502657e-01     0.00000000e+00    
           5.07562995e-01     5.09811342e-01     0.00000000e+00    
           5.08275390e-01     5.08091509e-01     0.00000000e+00    
           5.09408593e-01     5.06614625e-01     0.00000000e+00    
           5.10885477e-01     5.05481362e-01     0.00000000e+00    
           5.12605369e-01     5.04768968e-01     0.00000000e+00    
           5.14451027e-01     5.04526019e-01     0.00000000e+00    
           5.16296625e-01     5.04768968e-01     0.00000000e+00    
           5.18016517e-01     5.05481362e-01     0.00000000e+00    
           5.19493401e-01     5.06614625e-01     0.00000000e+00    
           5.20626605e-01     5.08091509e-01     0.00000000e+00    
           5.21338999e-01     5.09811342e-01     0.00000000e+00    
           4.66931671e-01     5.04409373e-01     0.00000000e+00    
           4.68693614e-01     5.04328012e-01     0.00000000e+00    
           4.70421344e-01     5.04682958e-01     0.00000000e+00    
           4.72008497e-01     5.05452335e-01     0.00000000e+00    
           4.73357379e-01     5.06588817e-01     0.00000000e+00    
           4.74384934e-01     5.08022368e-01     0.00000000e+00    
           4.75027919e-01     5.09664834e-01     0.00000000e+00    
           4.75028187e-01     5.13165236e-01     0.00000000e+00    
           4.74385172e-01     5.14807761e-01     0.00000000e+00    
           4.73357558e-01     5.16241372e-01     0.00000000e+00    
           4.72008646e-01     5.17377913e-01     0.00000000e+00    
           4.70421433e-01     5.18147290e-01     0.00000000e+00    
           4.68693614e-01     5.18502235e-01     0.00000000e+00    
           4.66931641e-01     5.18420875e-01     0.00000000e+00    
           5.32303810e-01     5.16964078e-01     0.00000000e+00    
           5.31043947e-01     5.15658796e-01     0.00000000e+00    
           5.30155540e-01     5.14077127e-01     0.00000000e+00    
           5.29696345e-01     5.12322068e-01     0.00000000e+00    
           5.29696345e-01     5.10507941e-01     0.00000000e+00    
           5.30155540e-01     5.08752882e-01     0.00000000e+00    
           5.31043947e-01     5.07171214e-01     0.00000000e+00    
           5.32303810e-01     5.05865932e-01     0.00000000e+00    
           4.68517244e-01     5.32760799e-01     0.00000000e+00    
           4.68509018e-01     5.30844629e-01     0.00000000e+00    
           4.68960851e-01     5.28982460e-01     0.00000000e+00    
           4.69846308e-01     5.27283132e-01     0.00000000e+00    
           4.71113682e-01     5.25845945e-01     0.00000000e+00    
           4.72688884e-01     5.24754822e-01     0.00000000e+00    
           4.74479854e-01     5.24073541e-01     0.00000000e+00    
           4.78284091e-01     5.24073601e-01     0.00000000e+00    
           4.80075032e-01     5.24754822e-01     0.00000000e+00    
           4.81650203e-01     5.25845885e-01     0.00000000e+00    
           4.82917547e-01     5.27283013e-01     0.00000000e+00    
           4.83803004e-01     5.28982282e-01     0.00000000e+00    
           4.84254897e-01     5.30844331e-01     0.00000000e+00    
           4.84246761e-01     5.32760441e-01     0.00000000e+00    
           4.82887864e-01     4.67691004e-01     0.00000000e+00    
           4.81620818e-01     4.69110936e-01     0.00000000e+00    
           4.80051905e-01     4.70188022e-01     0.00000000e+00    
           4.78271484e-01     4.70860153e-01     0.00000000e+00    
           4.76382166e-01     4.71088618e-01     0.00000000e+00    
           4.74492878e-01     4.70860243e-01     0.00000000e+00    
           4.72712427e-01     4.70188200e-01     0.00000000e+00    
           4.71143454e-01     4.69111174e-01     0.00000000e+00    
           4.69876349e-01     4.67691302e-01     0.00000000e+00    
           4.88103986e-01     5.33086061e-01     0.00000000e+00    
           4.87431526e-01     5.31323195e-01     0.00000000e+00    
           4.87231195e-01     5.29447019e-01     0.00000000e+00    
           4.87516224e-01     5.27581930e-01     0.00000000e+00    
           4.88267750e-01     5.25851250e-01     0.00000000e+00    
           4.89436030e-01     5.24369657e-01     0.00000000e+00    
           4.90943670e-01     5.23235261e-01     0.00000000e+00    
           4.92690891e-01     5.22523046e-01     0.00000000e+00    
           4.96432930e-01     5.22523701e-01     0.00000000e+00    
           4.98180002e-01     5.23235798e-01     0.00000000e+00    
           4.99687493e-01     5.24370134e-01     0.00000000e+00    
           5.00855684e-01     5.25851607e-01     0.00000000e+00    
           5.01607120e-01     5.27582109e-01     0.00000000e+00    
           5.01892149e-01     5.29447079e-01     0.00000000e+00    
           5.01691818e-01     5.31323016e-01     0.00000000e+00    
           5.01019418e-01     5.33085763e-01     0.00000000e+00    
           4.98371124e-01     4.67269689e-01     0.00000000e+00    
           4.96539861e-01     4.68064904e-01     0.00000000e+00    
           4.94562000e-01     4.68336672e-01     0.00000000e+00    
           4.92584139e-01     4.68064904e-01     0.00000000e+00    
           4.90752876e-01     4.67269689e-01     0.00000000e+00    
           5.32269001e-01     4.75995690e-01     0.00000000e+00    
           5.31541944e-01     4.77750987e-01     0.00000000e+00    
           5.30385315e-01     4.79258329e-01     0.00000000e+00    
           5.28877974e-01     4.80414927e-01     0.00000000e+00    
[...]
      <PointData>
        <DataArray type="Float32" Name="Displacement" NumberOfComponents="3">
           5.07081568e-04     2.92415789e-04     0.00000000e+00    
           4.96082066e-04     3.13457218e-04     0.00000000e+00    
           1.51336906e-04     3.20016843e-04     0.00000000e+00    
           1.26347906e-04     3.04415094e-04     0.00000000e+00    
           1.49528452e-04     2.98863568e-04     0.00000000e+00    
           5.76347928e-04     3.04415094e-04     0.00000000e+00    
           6.01336884e-04     3.20016843e-04     0.00000000e+00    
           2.96106009e-04     4.24028112e-04     0.00000000e+00    
           2.83939473e-04     4.63130244e-04     0.00000000e+00    
           2.59393564e-04     4.33410867e-04     0.00000000e+00    
           5.89394622e-05     1.31302504e-05     0.00000000e+00    
           7.11059984e-05    -2.59718818e-05     0.00000000e+00    
           3.86925822e-04     3.92089394e-04     0.00000000e+00    
           3.76956450e-04     4.12283087e-04     0.00000000e+00    
           3.54137883e-04     3.92077171e-04     0.00000000e+00    
           1.51956454e-04    -3.77169090e-05     0.00000000e+00    
           1.61925840e-04    -5.79106054e-05     0.00000000e+00    
           4.56667622e-04     7.43959317e-05     0.00000000e+00    
           4.42307704e-04     1.04499995e-04     0.00000000e+00    
           5.96221711e-04     3.76940530e-04     0.00000000e+00    
           6.18329854e-04     3.88332322e-04     0.00000000e+00    
           5.92649158e-04     4.09640808e-04     0.00000000e+00    
           1.68329847e-04     3.88332322e-04     0.00000000e+00    
           1.46221719e-04     3.76940530e-04     0.00000000e+00    
           2.71690747e-04     3.36969300e-04     0.00000000e+00    
           2.58267100e-04     3.73762363e-04     0.00000000e+00    
           5.25035255e-04     3.91840469e-04     0.00000000e+00    
           5.08552534e-04     3.93468508e-04     0.00000000e+00    
           2.93316843e-04     1.48604406e-04     0.00000000e+00    
           2.75969243e-04     1.52817898e-04     0.00000000e+00    
           1.00333033e-04     1.02335507e-04     0.00000000e+00    
           7.70555489e-05     9.51126567e-05     0.00000000e+00    
           1.04378807e-04     7.09712112e-05     0.00000000e+00    
           5.27055527e-04     9.51126567e-05     0.00000000e+00    
           5.50333003e-04     1.02335507e-04     0.00000000e+00    
           1.61064978e-04     2.16914705e-04     0.00000000e+00    
           1.46355698e-04     2.28950259e-04     0.00000000e+00    
           1.76448200e-04     8.50286888e-05     0.00000000e+00    
           1.57077811e-04     9.03409818e-05     0.00000000e+00    
           3.26091540e-04     1.87249447e-04     0.00000000e+00    
           3.09760537e-04     2.15780310e-04     0.00000000e+00    
           5.20566187e-04     2.49914679e-04     0.00000000e+00    
           5.05421718e-04     2.68856034e-04     0.00000000e+00    
           2.51564372e-04     2.26989607e-04     0.00000000e+00    
           2.33340776e-04     2.53153587e-04     0.00000000e+00    
           4.24850587e-04     1.73114400e-04     0.00000000e+00    
           4.08282795e-04     1.82167321e-04     0.00000000e+00    
           2.24999996e-04     4.49999992e-04     0.00000000e+00    
           0.00000000e+00     0.00000000e+00     0.00000000e+00    
           4.49999992e-04     0.00000000e+00     0.00000000e+00    
           6.75000018e-04     4.49999992e-04     0.00000000e+00    
           5.09912556e-04     2.95300677e-04     0.00000000e+00    
           5.12703438e-04     2.98287981e-04     0.00000000e+00    
           5.14728716e-04     3.01509484e-04     0.00000000e+00    
           5.15662716e-04     3.04626912e-04     0.00000000e+00    
           5.15388092e-04     3.08027636e-04     0.00000000e+00    
           5.14091866e-04     3.11355630e-04     0.00000000e+00    
           5.12589002e-04     3.13925877e-04     0.00000000e+00    
           5.10404760e-04     3.15347948e-04     0.00000000e+00    
           5.07194898e-04     3.15881014e-04     0.00000000e+00    
           5.03548014e-04     3.15674552e-04     0.00000000e+00    
           4.99814108e-04     3.14929581e-04     0.00000000e+00    
           4.92570631e-04     3.11094220e-04     0.00000000e+00    
           4.89579979e-04     3.08378396e-04     0.00000000e+00    
           4.87372949e-04     3.05415160e-04     0.00000000e+00    
           4.86123958e-04     3.02488275e-04     0.00000000e+00    
           4.86379373e-04     2.99417210e-04     0.00000000e+00    
           4.88198915e-04     2.96471058e-04     0.00000000e+00    
           4.91105544e-04     2.93714344e-04     0.00000000e+00    
           4.95194923e-04     2.90752389e-04     0.00000000e+00    
           4.99110029e-04     2.88628420e-04     0.00000000e+00    
           5.02066629e-04     2.88546609e-04     0.00000000e+00    
           5.04146155e-04     2.90129130e-04     0.00000000e+00    
           1.28441534e-04     3.01497465e-04     0.00000000e+00    
           1.30898552e-04     2.99112464e-04     0.00000000e+00    
           1.33029753e-04     2.96961865e-04     0.00000000e+00    
           1.35637412e-04     2.95788923e-04     0.00000000e+00    
           1.38691787e-04     2.95704114e-04     0.00000000e+00    
           1.42232355e-04     2.96127633e-04     0.00000000e+00    
           1.45848695e-04     2.97336752e-04     0.00000000e+00    
           1.52739725e-04     3.00534215e-04     0.00000000e+00    
           1.55177389e-04     3.02370696e-04     0.00000000e+00    
           1.56573849e-04     3.04750196e-04     0.00000000e+00    
           1.57089060e-04     3.07492795e-04     0.00000000e+00    
           1.56958951e-04     3.10547126e-04     0.00000000e+00    
           1.55894813e-04     3.13700381e-04     0.00000000e+00    
           1.53845918e-04     3.16792546e-04     0.00000000e+00    
           5.98623126e-04     3.22113978e-04     0.00000000e+00    
           5.95770311e-04     3.22536187e-04     0.00000000e+00    
           5.92317607e-04     3.21101892e-04     0.00000000e+00    
           5.88431780e-04     3.19150015e-04     0.00000000e+00    
           5.84529946e-04     3.16285965e-04     0.00000000e+00    
           5.80740802e-04     3.13263823e-04     0.00000000e+00    
           5.77859581e-04     3.10421892e-04     0.00000000e+00    
           5.76482969e-04     3.07279755e-04     0.00000000e+00    
           2.77576473e-04     4.61896445e-04     0.00000000e+00    
           2.71593657e-04     4.59779578e-04     0.00000000e+00    
           2.66299088e-04     4.57152171e-04     0.00000000e+00    
           2.62231304e-04     4.53685672e-04     0.00000000e+00    
           2.59585213e-04     4.49299143e-04     0.00000000e+00    
           2.58231303e-04     4.44276666e-04     0.00000000e+00    
           2.58168817e-04     4.38886258e-04     0.00000000e+00    
           2.62285495e-04     4.27693158e-04     0.00000000e+00    
           2.65777431e-04     4.22819983e-04     0.00000000e+00    
           2.69862823e-04     4.19672637e-04     0.00000000e+00    
           2.74843653e-04     4.18207375e-04     0.00000000e+00    
           2.80654640e-04     4.17979230e-04     0.00000000e+00    
           2.86265917e-04     4.18715121e-04     0.00000000e+00    
           2.91483855e-04     4.20550030e-04     0.00000000e+00    
           7.52270789e-05    -2.15356031e-05     0.00000000e+00    
           7.85440279e-05    -1.63501172e-05     0.00000000e+00    
           8.05976815e-05    -1.09524171e-05     0.00000000e+00    
           8.09523699e-05    -5.40379187e-06     0.00000000e+00    
           7.97008615e-05     4.31349463e-07     0.00000000e+00    
           7.74498112e-05     5.91359594e-06     0.00000000e+00    
           7.44006466e-05     9.91933575e-06     0.00000000e+00    
           7.02034304e-05     1.21107114e-05     0.00000000e+00    
           6.47748384e-05     1.30960152e-05     0.00000000e+00    
           3.72289389e-04     4.12866008e-04     0.00000000e+00    
           3.67532426e-04     4.12509282e-04     0.00000000e+00    
           3.63086408e-04     4.11205721e-04     0.00000000e+00    
           3.59044847e-04     4.08530934e-04     0.00000000e+00    
           3.55305005e-04     4.04609425e-04     0.00000000e+00    
           3.52684408e-04     4.01035242e-04     0.00000000e+00    
           3.51563504e-04     3.97603755e-04     0.00000000e+00    
           3.51792929e-04     3.94673931e-04     0.00000000e+00    
           3.57436336e-04     3.89419642e-04     0.00000000e+00    
           3.61499173e-04     3.87172273e-04     0.00000000e+00    
           3.66200897e-04     3.85603984e-04     0.00000000e+00    
           3.71136499e-04     3.84566811e-04     0.00000000e+00    
           3.75701580e-04     3.83927400e-04     0.00000000e+00    
           3.79770616e-04     3.84226267e-04     0.00000000e+00    
           3.82874190e-04     3.85676074e-04     0.00000000e+00    
           3.85167135e-04     3.88512097e-04     0.00000000e+00    
           1.62911194e-04    -5.38757267e-05     0.00000000e+00    
           1.62939541e-04    -4.97597175e-05     0.00000000e+00    
           1.61867079e-04    -4.58253598e-05     0.00000000e+00    
           1.59539501e-04    -4.22697267e-05     0.00000000e+00    
           1.56259266e-04    -3.94692142e-05     0.00000000e+00    
           4.61270218e-04     7.64469951e-05     0.00000000e+00    
           4.64508863e-04     7.91344864e-05     0.00000000e+00    
           4.66178055e-04     8.22708171e-05     0.00000000e+00    
           4.65890014e-04     8.66972186e-05     0.00000000e+00    
           4.64699406e-04     9.16095887e-05     0.00000000e+00    
           4.62635537e-04     9.66361258e-05     0.00000000e+00    
           4.60118492e-04     1.01698068e-04     0.00000000e+00    
           4.57251968e-04     1.05324274e-04     0.00000000e+00    
           4.54243680e-04     1.07378270e-04     0.00000000e+00    
           4.50610241e-04     1.07373096e-04     0.00000000e+00    
           4.46476595e-04     1.06448351e-04     0.00000000e+00    
           4.38245537e-04     1.01933525e-04     0.00000000e+00    
           4.34778543e-04     9.84743529e-05     0.00000000e+00    
           4.32032248e-04     9.45055872e-05     0.00000000e+00    
           4.30349406e-04     9.00101149e-05     0.00000000e+00    
           4.29916865e-04     8.52245721e-05     0.00000000e+00    
           4.30534303e-04     8.05211530e-05     0.00000000e+00    
           4.32247762e-04     7.66094963e-05     0.00000000e+00    
           4.35293477e-04     7.37944720e-05     0.00000000e+00    
           4.39683878e-04     7.22916157e-05     0.00000000e+00    
           4.44860518e-04     7.19463787e-05     0.00000000e+00    
           4.50667227e-04     7.26561702e-05     0.00000000e+00    
           6.19646686e-04     3.92211135e-04     0.00000000e+00    
           6.19917817e-04     3.96675896e-04     0.00000000e+00    
           6.19270140e-04     4.01566562e-04     0.00000000e+00    
           6.17864600e-04     4.05825966e-04     0.00000000e+00    
           6.15548983e-04     4.09129250e-04     0.00000000e+00    
           6.11675496e-04     4.11163375e-04     0.00000000e+00    
           6.06811256e-04     4.11625544e-04     0.00000000e+00    
           6.01640320e-04     4.11514658e-04     0.00000000e+00    
           5.96658967e-04     4.10911365e-04     0.00000000e+00    
           5.89520903e-04     4.07252461e-04     0.00000000e+00    
           5.86621580e-04     4.04073071e-04     0.00000000e+00    
           5.84302412e-04     4.00601130e-04     0.00000000e+00    
           5.82957058e-04     3.97157564e-04     0.00000000e+00    
           5.82728651e-04     3.93508642e-04     0.00000000e+00    
           5.83869522e-04     3.89509951e-04     0.00000000e+00    
           5.86042879e-04     3.85222316e-04     0.00000000e+00    
           5.89026778e-04     3.80676356e-04     0.00000000e+00    
           5.92502765e-04     3.77815712e-04     0.00000000e+00    
           1.50253909e-04     3.77639983e-04     0.00000000e+00    
           1.54552967e-04     3.78979486e-04     0.00000000e+00    
           1.58890354e-04     3.80837213e-04     0.00000000e+00    
           1.62787241e-04     3.83194245e-04     0.00000000e+00    
           1.66045123e-04     3.85548337e-04     0.00000000e+00    
           2.77116924e-04     3.39759659e-04     0.00000000e+00    
           2.82234279e-04     3.44056345e-04     0.00000000e+00    
           2.86645634e-04     3.48356698e-04     0.00000000e+00    
           2.89388001e-04     3.53026961e-04     0.00000000e+00    
           2.90359574e-04     3.57697747e-04     0.00000000e+00    
           2.88886862e-04     3.62190389e-04     0.00000000e+00    
           2.86166120e-04     3.66824184e-04     0.00000000e+00    
           2.82738329e-04     3.71493719e-04     0.00000000e+00    
           2.78921099e-04     3.74840893e-04     0.00000000e+00    
           2.74741178e-04     3.76583223e-04     0.00000000e+00    
           2.69431155e-04     3.76648939e-04     0.00000000e+00    
           2.63877650e-04     3.75408330e-04     0.00000000e+00    
           2.53104314e-04     3.71300062e-04     0.00000000e+00    
           2.49088509e-04     3.68463196e-04     0.00000000e+00    
           2.46374606e-04     3.64970736e-04     0.00000000e+00    
           2.44937546e-04     3.60392296e-04     0.00000000e+00    
           2.44558672e-04     3.55206168e-04     0.00000000e+00    
           2.45298812e-04     3.49573762e-04     0.00000000e+00    
           2.46504002e-04     3.44399596e-04     0.00000000e+00    
           2.48348719e-04     3.40326980e-04     0.00000000e+00    
           2.51536752e-04     3.37645499e-04     0.00000000e+00    
           2.55784369e-04     3.36089113e-04     0.00000000e+00    
           2.60782486e-04     3.35369667e-04     0.00000000e+00    
           2.66206684e-04     3.35585180e-04     0.00000000e+00    
           5.24673960e-04     3.93371272e-04     0.00000000e+00    
           5.23951370e-04     3.95040814e-04     0.00000000e+00    
           5.22994029e-04     3.96314368e-04     0.00000000e+00    
           5.21690003e-04     3.97065072e-04     0.00000000e+00    
           5.19847032e-04     3.97443626e-04     0.00000000e+00    
           5.17693174e-04     3.97466152e-04     0.00000000e+00    
           5.15282038e-04     3.97067226e-04     0.00000000e+00    
           5.12852741e-04     3.96222924e-04     0.00000000e+00    
           5.10538230e-04     3.95199429e-04     0.00000000e+00    
           5.09009347e-04     3.94250004e-04     0.00000000e+00    
           5.09049103e-04     3.92611168e-04     0.00000000e+00    
           5.10065118e-04     3.91182635e-04     0.00000000e+00    
           5.11424907e-04     3.89670022e-04     0.00000000e+00    
           5.13095409e-04     3.88022308e-04     0.00000000e+00    
           5.14844200e-04     3.86452535e-04     0.00000000e+00    
           5.16447122e-04     3.85251071e-04     0.00000000e+00    
           5.18121698e-04     3.85230349e-04     0.00000000e+00    
           5.20457805e-04     3.86554515e-04     0.00000000e+00    
           5.22527553e-04     3.88640299e-04     0.00000000e+00    
           5.24331466e-04     3.90460220e-04     0.00000000e+00    
           2.95263802e-04     1.50065491e-04     0.00000000e+00    
           2.96076032e-04     1.51348242e-04     0.00000000e+00    
           2.95666308e-04     1.53178305e-04     0.00000000e+00    
           2.94188765e-04     1.55542570e-04     0.00000000e+00    
           2.92914949e-04     1.58285664e-04     0.00000000e+00    
           2.91457196e-04     1.59686926e-04     0.00000000e+00    
           2.89581687e-04     1.59579897e-04     0.00000000e+00    
           2.87049770e-04     1.58526251e-04     0.00000000e+00    
           2.84063281e-04     1.57265575e-04     0.00000000e+00    
           2.81243585e-04     1.55624482e-04     0.00000000e+00    
           2.78358493e-04     1.54081397e-04     0.00000000e+00    
           2.74118531e-04     1.51869710e-04     0.00000000e+00    
           2.73228128e-04     1.50649023e-04     0.00000000e+00    
           2.73445476e-04     1.49323925e-04     0.00000000e+00    
           2.74528778e-04     1.47983868e-04     0.00000000e+00    
           2.75933009e-04     1.46687511e-04     0.00000000e+00    
           2.77574727e-04     1.45685626e-04     0.00000000e+00    
           2.79667234e-04     1.45085156e-04     0.00000000e+00    
           2.82080407e-04     1.44908699e-04     0.00000000e+00    
           2.84864305e-04     1.45360624e-04     0.00000000e+00    
           2.87710020e-04     1.46180915e-04     0.00000000e+00    
           2.90556753e-04     1.47454761e-04     0.00000000e+00    
           7.61700794e-05     9.17235520e-05     0.00000000e+00    
           7.60633266e-05     8.73400350e-05     0.00000000e+00    
           7.68347600e-05     8.24984745e-05     0.00000000e+00    
           7.84666991e-05     7.73028587e-05     0.00000000e+00    
           8.09302292e-05     7.29003732e-05     0.00000000e+00    
           8.42487643e-05     6.99988814e-05     0.00000000e+00    
           8.88473514e-05     6.89875451e-05     0.00000000e+00    
           9.41341859e-05     6.93872134e-05     0.00000000e+00    
           9.96540184e-05     6.99371667e-05     0.00000000e+00    
           1.07959233e-04     7.29954627e-05     0.00000000e+00    
           1.09794077e-04     7.59469403e-05     0.00000000e+00    
           1.11226873e-04     7.99589689e-05     0.00000000e+00    
           1.12289163e-04     8.45446630e-05     0.00000000e+00    
           1.13106536e-04     8.91074742e-05     0.00000000e+00    
           1.13036047e-04     9.32119001e-05     0.00000000e+00    
           1.11667752e-04     9.65375439e-05     0.00000000e+00    
           1.08919892e-04     9.92091227e-05     0.00000000e+00    
           1.05023937e-04     1.01187732e-04     0.00000000e+00    
           5.45028714e-04     1.02476064e-04     0.00000000e+00    
           5.39113418e-04     1.01339981e-04     0.00000000e+00    
           5.33879211e-04     1.00048717e-04     0.00000000e+00    
           5.29787969e-04     9.79029355e-05     0.00000000e+00    
           1.63529330e-04     2.18501853e-04     0.00000000e+00    
           1.64617726e-04     2.20109738e-04     0.00000000e+00    
           1.64202618e-04     2.21999304e-04     0.00000000e+00    
           1.63052930e-04     2.24179064e-04     0.00000000e+00    
           1.61483622e-04     2.26527583e-04     0.00000000e+00    
           1.59561372e-04     2.28847115e-04     0.00000000e+00    
           1.57582836e-04     2.30911392e-04     0.00000000e+00    
           1.55378759e-04     2.32042148e-04     0.00000000e+00    
           1.52702298e-04     2.31934842e-04     0.00000000e+00    
           1.50060107e-04     2.31352838e-04     0.00000000e+00    
           1.47921513e-04     2.30439662e-04     0.00000000e+00    
           1.45193670e-04     2.26873191e-04     0.00000000e+00    
           1.44296297e-04     2.24182411e-04     0.00000000e+00    
           1.43844867e-04     2.21188122e-04     0.00000000e+00    
           1.43682017e-04     2.18094807e-04     0.00000000e+00    
           1.43860103e-04     2.15269567e-04     0.00000000e+00    
           1.44470148e-04     2.13261897e-04     0.00000000e+00    
           1.45790415e-04     2.12147497e-04     0.00000000e+00    
           1.48119652e-04     2.11797262e-04     0.00000000e+00    
           1.50991764e-04     2.12073108e-04     0.00000000e+00    