<?xml version="1.0"?>
<VTKFile type="UnstructuredGrid" version="0.1">
  <UnstructuredGrid>
    <Piece NumberOfPoints="1034" NumberOfCells="1614">
      <Points>
        <DataArray type="Float32" NumberOfComponents="3">
           5.21582007e-01     5.11657000e-01     0.00000000e+00    
           5.07319987e-01     5.11657000e-01     0.00000000e+00    
           4.65243995e-01     5.17907977e-01     0.00000000e+00    
           4.65243995e-01     5.04921973e-01     0.00000000e+00    
           4.75246996e-01     5.11415005e-01     0.00000000e+00    
           5.33852994e-01     5.04921973e-01     0.00000000e+00    
           5.33852994e-01     5.17907977e-01     0.00000000e+00    
           4.83779997e-01     5.34618974e-01     0.00000000e+00    
           4.68984991e-01     5.34618974e-01     0.00000000e+00    
           4.76381987e-01     5.23841977e-01     0.00000000e+00    
           4.68984991e-01     4.66010004e-01     0.00000000e+00    
           4.83779997e-01     4.66010004e-01     0.00000000e+00    
           4.99920011e-01     5.34618974e-01     0.00000000e+00    
           4.89203990e-01     5.34618974e-01     0.00000000e+00    
           4.94562000e-01     5.22280991e-01     0.00000000e+00    
           4.89203990e-01     4.66010004e-01     0.00000000e+00    
           4.99920011e-01     4.66010004e-01     0.00000000e+00    
           5.32517016e-01     4.74112004e-01     0.00000000e+00    
           5.17961025e-01     4.74112004e-01     0.00000000e+00    
           5.33852994e-01     5.19801974e-01     0.00000000e+00    
           5.33852994e-01     5.29603004e-01     0.00000000e+00    
           5.19536972e-01     5.24702013e-01     0.00000000e+00    
           4.65243995e-01     5.29603004e-01     0.00000000e+00    
           4.65243995e-01     5.19801974e-01     0.00000000e+00    
           4.92487997e-01     5.17117977e-01     0.00000000e+00    
           4.76904988e-01     5.17117977e-01     0.00000000e+00    
           5.17996013e-01     5.27033985e-01     0.00000000e+00    
           5.04473984e-01     5.27033985e-01     0.00000000e+00    
           5.08446991e-01     4.83435005e-01     0.00000000e+00    
           4.94414002e-01     4.83435005e-01     0.00000000e+00    
           4.65243995e-01     4.83101994e-01     0.00000000e+00    
           4.65243995e-01     4.74415004e-01     0.00000000e+00    
           4.78336990e-01     4.78758007e-01     0.00000000e+00    
           5.33852994e-01     4.74415004e-01     0.00000000e+00    
           5.33852994e-01     4.83101994e-01     0.00000000e+00    
           4.80668008e-01     4.95810986e-01     0.00000000e+00    
           4.66084987e-01     4.95810986e-01     0.00000000e+00    
           4.93930012e-01     4.79214013e-01     0.00000000e+00    
           4.78967011e-01     4.79214013e-01     0.00000000e+00    
           5.09284973e-01     4.97658014e-01     0.00000000e+00    
           4.95503992e-01     4.97658014e-01     0.00000000e+00    
           5.33011973e-01     5.01751006e-01     0.00000000e+00    
           5.17829001e-01     5.01751006e-01     0.00000000e+00    
           4.95451003e-01     5.00564992e-01     0.00000000e+00    
           4.80922014e-01     5.00564992e-01     0.00000000e+00    
           5.25367022e-01     4.88312006e-01     0.00000000e+00    
           5.09521008e-01     4.88312006e-01     0.00000000e+00    
           4.65243995e-01     5.34618974e-01     0.00000000e+00    
           4.65243995e-01     4.66010004e-01     0.00000000e+00    
           5.33852994e-01     4.66010004e-01     0.00000000e+00    
           5.33852994e-01     5.34618974e-01     0.00000000e+00    
           5.21338999e-01     5.13502657e-01     0.00000000e+00    
           5.20626605e-01     5.15222490e-01     0.00000000e+00    
           5.19493401e-01     5.16699374e-01     0.00000000e+00    
           5.18016517e-01     5.17832637e-01     0.00000000e+00    
           5.16296625e-01     5.18545032e-01     0.00000000e+00    
           5.14451027e-01     5.18787980e-01     0.00000000e+00    
           5.12605369e-01     5.18545032e-01     0.00000000e+00    
           5.10885477e-01     5.17832637e-01     0.00000000e+00    
           5.09408593e-01     5.16699374e-01     0.00000000e+00    
           5.08275390e-01     5.15222490e-01     0.00000000e+00    
           5.07562995e-01     5.13502657e-01     0.00000000e+00    
           5.07562995e-01     5.09811342e-01     0.00000000e+00    
           5.08275390e-01     5.08091509e-01     0.00000000e+00    
           5.09408593e-01     5.06614625e-01     0.00000000e+00    
           5.10885477e-01     5.05481362e-01     0.00000000e+00    
           5.12605369e-01     5.04768968e-01     0.00000000e+00    
           5.14451027e-01     5.04526019e-01     0.00000000e+00    
           5.16296625e-01     5.04768968e-01     0.00000000e+00    
           5.18016517e-01     5.05481362e-01     0.00000000e+00    
           5.19493401e-01     5.06614625e-01     0.00000000e+00    
           5.20626605e-01     5.08091509e-01     0.00000000e+00    
           5.21338999e-01     5.09811342e-01     0.00000000e+00    
           4.66931671e-01     5.04409373e-01     0.00000000e+00    
           4.68693614e-01     5.04328012e-01     0.00000000e+00    
           4.70421344e-01     5.04682958e-01     0.00000000e+00    
           4.72008497e-01     5.05452335e-01     0.00000000e+00    
           4.73357379e-01     5.06588817e-01     0.00000000e+00    
           4.74384934e-01     5.08022368e-01     0.00000000e+00    
           4.75027919e-01     5.09664834e-01     0.00000000e+00    
           4.75028187e-01     5.13165236e-01     0.00000000e+00    
           4.74385172e-01     5.14807761e-01     0.00000000e+00    
           4.73357558e-01     5.16241372e-01     0.00000000e+00    
           4.72008646e-01     5.17377913e-01     0.00000000e+00    
           4.70421433e-01     5.18147290e-01     0.00000000e+00    
           4.68693614e-01     5.18502235e-01     0.00000000e+00    
           4.66931641e-01     5.18420875e-01     0.00000000e+00    
           5.32303810e-01     5.16964078e-01     0.00000000e+00    
           5.31043947e-01     5.15658796e-01     0.00000000e+00    
           5.30155540e-01     5.14077127e-01     0.00000000e+00    
           5.29696345e-01     5.12322068e-01     0.00000000e+00    
           5.29696345e-01     5.10507941e-01     0.00000000e+00    
           5.30155540e-01     5.08752882e-01     0.00000000e+00    
           5.31043947e-01     5.07171214e-01     0.00000000e+00    
           5.32303810e-01     5.05865932e-01     0.00000000e+00    
           4.68517244e-01     5.32760799e-01     0.00000000e+00    
           4.68509018e-01     5.30844629e-01     0.00000000e+00    
           4.68960851e-01     5.28982460e-01     0.00000000e+00    
           4.69846308e-01     5.27283132e-01     0.00000000e+00    
           4.71113682e-01     5.25845945e-01     0.00000000e+00    
           4.72688884e-01     5.24754822e-01     0.00000000e+00    
           4.74479854e-01     5.24073541e-01     0.00000000e+00    
           4.78284091e-01     5.24073601e-01     0.00000000e+00    
           4.80075032e-01     5.24754822e-01     0.00000000e+00    
           4.81650203e-01     5.25845885e-01     0.00000000e+00    
           4.82917547e-01     5.27283013e-01     0.00000000e+00    
           4.83803004e-01     5.28982282e-01     0.00000000e+00    
           4.84254897e-01     5.30844331e-01     0.00000000e+00    
           4.84246761e-01     5.32760441e-01     0.00000000e+00    
           4.82887864e-01     4.67691004e-01     0.00000000e+00    
           4.81620818e-01     4.69110936e-01     0.00000000e+00    
           4.80051905e-01     4.70188022e-01     0.00000000e+00    
           4.78271484e-01     4.70860153e-01     0.00000000e+00    
           4.76382166e-01     4.71088618e-01     0.00000000e+00    
           4.74492878e-01     4.70860243e-01     0.00000000e+00    
           4.72712427e-01     4.70188200e-01     0.00000000e+00    
           4.71143454e-01     4.69111174e-01     0.00000000e+00    
           4.69876349e-01     4.67691302e-01     0.00000000e+00    
           4.88103986e-01     5.33086061e-01     0.00000000e+00    
           4.87431526e-01     5.31323195e-01     0.00000000e+00    
           4.87231195e-01     5.29447019e-01     0.00000000e+00    
           4.87516224e-01     5.27581930e-01     0.00000000e+00    
           4.88267750e-01     5.25851250e-01     0.00000000e+00    
           4.89436030e-01     5.24369657e-01     0.00000000e+00    
           4.90943670e-01     5.23235261e-01     0.00000000e+00    
           4.92690891e-01     5.22523046e-01     0.00000000e+00    
           4.96432930e-01     5.22523701e-01     0.00000000e+00    
           4.98180002e-01     5.23235798e-01     0.00000000e+00    
           4.99687493e-01     5.24370134e-01     0.00000000e+00    
           5.00855684e-01     5.25851607e-01     0.00000000e+00    
           5.01607120e-01     5.27582109e-01     0.00000000e+00    
           5.01892149e-01     5.29447079e-01     0.00000000e+00    
           5.01691818e-01     5.31323016e-01     0.00000000e+00    
           5.01019418e-01     5.33085763e-01     0.00000000e+00    
           4.98371124e-01     4.67269689e-01     0.00000000e+00    
           4.96539861e-01     4.68064904e-01     0.00000000e+00    
           4.94562000e-01     4.68336672e-01     0.00000000e+00    
           4.92584139e-01     4.68064904e-01     0.00000000e+00    
           4.90752876e-01     4.67269689e-01     0.00000000e+00    
           5.32269001e-01     4.75995690e-01     0.00000000e+00    
           5.31541944e-01     4.77750987e-01     0.00000000e+00    
           5.30385315e-01     4.79258329e-01     0.00000000e+00    
           5.28877974e-01     4.80414927e-01     0.00000000e+00    
[...]
      <PointData>
        <DataArray type="Float32" Name="Displacement" NumberOfComponents="3">
           1.37445226e-03     8.15038511e-04     0.00000000e+00    
           1.35401031e-03     8.67944560e-04     0.00000000e+00    
           4.51439817e-04     8.80904263e-04     0.00000000e+00    
           3.85455700e-04     8.62866873e-04     0.00000000e+00    
           4.33291396e-04     8.23229551e-04     0.00000000e+00    
           1.63545576e-03     8.62866873e-04     0.00000000e+00    
           1.70143985e-03     8.80904263e-04     0.00000000e+00    
           8.08048935e-04     1.17309217e-03     0.00000000e+00    
           7.87192897e-04     1.25861168e-03     0.00000000e+00    
           7.33682245e-04     1.19979819e-03     0.00000000e+00    
           1.62192882e-04     8.61162789e-06     0.00000000e+00    
           1.83048920e-04    -7.69078033e-05     0.00000000e+00    
           1.07853592e-03     1.14456366e-03     0.00000000e+00    
           1.06194813e-03     1.18659344e-03     0.00000000e+00    
           1.01929845e-03     1.14885310e-03     0.00000000e+00    
           4.36948176e-04    -6.34065509e-05     0.00000000e+00    
           4.53535933e-04    -1.05436382e-04     0.00000000e+00    
           1.19816314e-03     1.53999004e-04     0.00000000e+00    
           1.17784622e-03     2.16217086e-04     0.00000000e+00    
           1.64836517e-03     1.03122054e-03     0.00000000e+00    
           1.69493887e-03     1.04587770e-03     0.00000000e+00    
           1.65163598e-03     1.10481551e-03     0.00000000e+00    
           4.44938923e-04     1.04587770e-03     0.00000000e+00    
           3.98365111e-04     1.03122054e-03     0.00000000e+00    
           7.63589807e-04     9.20185412e-04     0.00000000e+00    
           7.42012868e-04     1.01013738e-03     0.00000000e+00    
           1.42619852e-03     1.07146590e-03     0.00000000e+00    
           1.40660955e-03     1.11761293e-03     0.00000000e+00    
           8.05951364e-04     3.49153095e-04     0.00000000e+00    
           7.86742836e-04     4.10023669e-04     0.00000000e+00    
           2.28700141e-04     2.61589972e-04     0.00000000e+00    
           1.91745377e-04     2.49838573e-04     0.00000000e+00    
           2.28836856e-04     2.01277828e-04     0.00000000e+00    
           1.44174544e-03     2.49838573e-04     0.00000000e+00    
           1.47870008e-03     2.61589972e-04     0.00000000e+00    
           3.91949783e-04     5.59117470e-04     0.00000000e+00    
           3.71562113e-04     6.31136703e-04     0.00000000e+00    
           4.45398298e-04     2.14740736e-04     0.00000000e+00    
           4.24920727e-04     2.66245741e-04     0.00000000e+00    
           9.34490759e-04     5.04056516e-04     0.00000000e+00    
           9.14503704e-04     5.85026341e-04     0.00000000e+00    
           1.42896804e-03     6.77754404e-04     0.00000000e+00    
           1.40711269e-03     7.40507268e-04     0.00000000e+00    
           6.93746610e-04     6.11443189e-04     0.00000000e+00    
           6.73463393e-04     6.89555949e-04     0.00000000e+00    
           1.14114885e-03     4.03272046e-04     0.00000000e+00    
           1.11838838e-03     4.51765110e-04     0.00000000e+00    
           6.24999986e-04     1.24999997e-03     0.00000000e+00    
           0.00000000e+00     0.00000000e+00     0.00000000e+00    
           1.24999997e-03     0.00000000e+00     0.00000000e+00    
           1.87499996e-03     1.24999997e-03     0.00000000e+00    
           1.38073263e-03     8.19382549e-04     0.00000000e+00    
           1.38622790e-03     8.24308081e-04     0.00000000e+00    
           1.39031792e-03     8.30569130e-04     0.00000000e+00    
           1.39274006e-03     8.37759755e-04     0.00000000e+00    
           1.39320164e-03     8.45080242e-04     0.00000000e+00    
           1.39175239e-03     8.52253579e-04     0.00000000e+00    
           1.38882606e-03     8.58952815e-04     0.00000000e+00    
           1.38390227e-03     8.64762231e-04     0.00000000e+00    
           1.37680804e-03     8.68900213e-04     0.00000000e+00    
           1.36891101e-03     8.70345742e-04     0.00000000e+00    
           1.36114634e-03     8.69960058e-04     0.00000000e+00    
           1.34743680e-03     8.64261354e-04     0.00000000e+00    
           1.34196831e-03     8.59601714e-04     0.00000000e+00    
           1.33764348e-03     8.53570004e-04     0.00000000e+00    
           1.33506104e-03     8.46525189e-04     0.00000000e+00    
           1.33465335e-03     8.39099288e-04     0.00000000e+00    
           1.33662962e-03     8.31627171e-04     0.00000000e+00    
           1.34085841e-03     8.25070776e-04     0.00000000e+00    
           1.34618382e-03     8.20080109e-04     0.00000000e+00    
           1.35210529e-03     8.16008949e-04     0.00000000e+00    
           1.35891791e-03     8.13288731e-04     0.00000000e+00    
           1.36655325e-03     8.12766317e-04     0.00000000e+00    
           3.85405350e-04     8.53085599e-04     0.00000000e+00    
           3.87675682e-04     8.44135298e-04     0.00000000e+00    
           3.91642912e-04     8.35919869e-04     0.00000000e+00    
           3.97886848e-04     8.28910270e-04     0.00000000e+00    
           4.06243111e-04     8.24032526e-04     0.00000000e+00    
           4.15350485e-04     8.21543392e-04     0.00000000e+00    
           4.24443249e-04     8.21563182e-04     0.00000000e+00    
           4.41428885e-04     8.26568692e-04     0.00000000e+00    
           4.48932289e-04     8.31549289e-04     0.00000000e+00    
           4.54949739e-04     8.38427106e-04     0.00000000e+00    
           4.59158153e-04     8.46592884e-04     0.00000000e+00    
           4.60907584e-04     8.55728751e-04     0.00000000e+00    
           4.59859672e-04     8.65265902e-04     0.00000000e+00    
           4.56289883e-04     8.73503450e-04     0.00000000e+00    
           1.69503607e-03     8.87378119e-04     0.00000000e+00    
           1.68688316e-03     8.92024487e-04     0.00000000e+00    
           1.67731417e-03     8.93400458e-04     0.00000000e+00    
           1.66794390e-03     8.92472453e-04     0.00000000e+00    
           1.65955536e-03     8.89488088e-04     0.00000000e+00    
           1.65156822e-03     8.85167799e-04     0.00000000e+00    
           1.64441601e-03     8.79458094e-04     0.00000000e+00    
           1.63885648e-03     8.71944183e-04     0.00000000e+00    
           7.75496301e-04     1.25785498e-03     0.00000000e+00    
           7.64593657e-04     1.25491153e-03     0.00000000e+00    
           7.54455628e-04     1.24999660e-03     0.00000000e+00    
           7.45445082e-04     1.24277594e-03     0.00000000e+00    
           7.38348928e-04     1.23368914e-03     0.00000000e+00    
           7.33837776e-04     1.22298719e-03     0.00000000e+00    
           7.32356566e-04     1.21130480e-03     0.00000000e+00    
           7.37851486e-04     1.18896086e-03     0.00000000e+00    
           7.44012243e-04     1.17941981e-03     0.00000000e+00    
           7.52499967e-04     1.17148634e-03     0.00000000e+00    
           7.63358490e-04     1.16582937e-03     0.00000000e+00    
           7.75301538e-04     1.16390875e-03     0.00000000e+00    
           7.86865246e-04     1.16460572e-03     0.00000000e+00    
           7.98024295e-04     1.16752891e-03     0.00000000e+00    
           1.91510553e-04    -6.93859838e-05     0.00000000e+00    
           1.98120382e-04    -6.00222447e-05     0.00000000e+00    
           2.02313822e-04    -4.95180939e-05     0.00000000e+00    
           2.03809686e-04    -3.80884085e-05     0.00000000e+00    
           2.02670621e-04    -2.70266210e-05     0.00000000e+00    
           1.99178045e-04    -1.64428529e-05     0.00000000e+00    
           1.93224667e-04    -6.70501004e-06     0.00000000e+00    
           1.84671124e-04     1.22447614e-06     0.00000000e+00    
           1.73652443e-04     6.41648376e-06     0.00000000e+00    
           1.05416798e-03     1.18787133e-03     0.00000000e+00    
           1.04651519e-03     1.18748925e-03     0.00000000e+00    
           1.03907520e-03     1.18575932e-03     0.00000000e+00    
           1.03221263e-03     1.18209689e-03     0.00000000e+00    
           1.02679792e-03     1.17724470e-03     0.00000000e+00    
           1.02222187e-03     1.17153628e-03     0.00000000e+00    
           1.01912045e-03     1.16467581e-03     0.00000000e+00    
           1.01776677e-03     1.15702266e-03     0.00000000e+00    
           1.02348800e-03     1.14119845e-03     0.00000000e+00    
           1.02986570e-03     1.13542925e-03     0.00000000e+00    
           1.03722711e-03     1.13176415e-03     0.00000000e+00    
           1.04490260e-03     1.12957519e-03     0.00000000e+00    
           1.05251360e-03     1.12887553e-03     0.00000000e+00    
           1.06036349e-03     1.12983875e-03     0.00000000e+00    
           1.06776040e-03     1.13292295e-03     0.00000000e+00    
           1.07392017e-03     1.13792031e-03     0.00000000e+00    
           4.56436945e-04    -9.75410803e-05     0.00000000e+00    
           4.57012386e-04    -8.90562878e-05     0.00000000e+00    
           4.55164205e-04    -8.06051321e-05     0.00000000e+00    
           4.50878957e-04    -7.31565306e-05     0.00000000e+00    
           4.44744539e-04    -6.72647657e-05     0.00000000e+00    
           1.20609254e-03     1.57084971e-04     0.00000000e+00    
           1.21325103e-03     1.61929696e-04     0.00000000e+00    
           1.21900905e-03     1.68892089e-04     0.00000000e+00    
           1.22195599e-03     1.77668000e-04     0.00000000e+00    
           1.22210616e-03     1.86831283e-04     0.00000000e+00    
           1.22011441e-03     1.95420973e-04     0.00000000e+00    
           1.21653255e-03     2.03215808e-04     0.00000000e+00    
           1.21132564e-03     2.10067054e-04     0.00000000e+00    
           1.20459695e-03     2.15540029e-04     0.00000000e+00    
           1.19584252e-03     2.18697605e-04     0.00000000e+00    
           1.18647434e-03     2.18886475e-04     0.00000000e+00    
           1.17002276e-03     2.12182262e-04     0.00000000e+00    
           1.16359850e-03     2.06275072e-04     0.00000000e+00    
           1.15860242e-03     1.99248665e-04     0.00000000e+00    
           1.15540461e-03     1.91357351e-04     0.00000000e+00    
           1.15425780e-03     1.83012293e-04     0.00000000e+00    
           1.15514651e-03     1.74491652e-04     0.00000000e+00    
           1.15843734e-03     1.66259473e-04     0.00000000e+00    
           1.16437022e-03     1.59184681e-04     0.00000000e+00    
           1.17245154e-03     1.54458845e-04     0.00000000e+00    
           1.18123274e-03     1.52417502e-04     0.00000000e+00    
           1.18997053e-03     1.52354318e-04     0.00000000e+00    
           1.70000514e-03     1.05404295e-03     0.00000000e+00    
           1.70288782e-03     1.06333999e-03     0.00000000e+00    
           1.70332915e-03     1.07316498e-03     0.00000000e+00    
           1.70119398e-03     1.08253025e-03     0.00000000e+00    
           1.69659895e-03     1.09127967e-03     0.00000000e+00    
           1.68921123e-03     1.09850871e-03     0.00000000e+00    
           1.68024132e-03     1.10286509e-03     0.00000000e+00    
           1.67083181e-03     1.10522308e-03     0.00000000e+00    
           1.66130543e-03     1.10596616e-03     0.00000000e+00    
           1.64248073e-03     1.10116263e-03     0.00000000e+00    
           1.63465331e-03     1.09547284e-03     0.00000000e+00    
           1.62851380e-03     1.08788768e-03     0.00000000e+00    
           1.62445579e-03     1.07907644e-03     0.00000000e+00    
           1.62254868e-03     1.06948346e-03     0.00000000e+00    
           1.62382808e-03     1.05947023e-03     0.00000000e+00    
           1.62750017e-03     1.05031487e-03     0.00000000e+00    
           1.63294491e-03     1.04242144e-03     0.00000000e+00    
           1.63984951e-03     1.03589520e-03     0.00000000e+00    
           4.07151005e-04     1.02941680e-03     0.00000000e+00    
           4.15921852e-04     1.02989865e-03     0.00000000e+00    
           4.24118305e-04     1.03183533e-03     0.00000000e+00    
           4.31711407e-04     1.03534979e-03     0.00000000e+00    
           4.38842253e-04     1.03981339e-03     0.00000000e+00    
           7.74042623e-04     9.24348773e-04     0.00000000e+00    
           7.83291995e-04     9.30618495e-04     0.00000000e+00    
           7.91207829e-04     9.38338868e-04     0.00000000e+00    
           7.97388668e-04     9.47834691e-04     0.00000000e+00    
           8.00891488e-04     9.58824123e-04     0.00000000e+00    
           8.01049173e-04     9.70800291e-04     0.00000000e+00    
           7.98160909e-04     9.81847406e-04     0.00000000e+00    
           7.93147192e-04     9.92069952e-04     0.00000000e+00    
           7.85870128e-04     1.00081740e-03     0.00000000e+00    
           7.76537752e-04     1.00771501e-03     0.00000000e+00    
           7.64875091e-04     1.01152004e-03     0.00000000e+00    
           7.53322965e-04     1.01173203e-03     0.00000000e+00    
           7.31431588e-04     1.00606086e-03     0.00000000e+00    
           7.21728080e-04     1.00003427e-03     0.00000000e+00    
           7.13671674e-04     9.91651323e-04     0.00000000e+00    
           7.08037347e-04     9.81511781e-04     0.00000000e+00    
           7.05215440e-04     9.70447436e-04     0.00000000e+00    
           7.05252634e-04     9.59121797e-04     0.00000000e+00    
           7.07413245e-04     9.48147674e-04     0.00000000e+00    
           7.12099834e-04     9.37838282e-04     0.00000000e+00    
           7.19694828e-04     9.28941241e-04     0.00000000e+00    
           7.29607767e-04     9.22477106e-04     0.00000000e+00    
           7.40919844e-04     9.19009675e-04     0.00000000e+00    
           7.52458291e-04     9.18415200e-04     0.00000000e+00    
           1.43267820e-03     1.07476092e-03     0.00000000e+00    
           1.43763213e-03     1.07981660e-03     0.00000000e+00    
           1.44095579e-03     1.08611712e-03     0.00000000e+00    
           1.44257746e-03     1.09301857e-03     0.00000000e+00    
           1.44190446e-03     1.10019569e-03     0.00000000e+00    
           1.43907918e-03     1.10708433e-03     0.00000000e+00    
           1.43398973e-03     1.11284223e-03     0.00000000e+00    
           1.42756896e-03     1.11655553e-03     0.00000000e+00    
           1.42049429e-03     1.11850246e-03     0.00000000e+00    
           1.41354662e-03     1.11881038e-03     0.00000000e+00    
           1.40008924e-03     1.11442257e-03     0.00000000e+00    
           1.39490736e-03     1.10912288e-03     0.00000000e+00    
           1.39169756e-03     1.10245252e-03     0.00000000e+00    
           1.39084307e-03     1.09488762e-03     0.00000000e+00    
           1.39188848e-03     1.08799199e-03     0.00000000e+00    
           1.39426184e-03     1.08150393e-03     0.00000000e+00    
           1.39856490e-03     1.07563194e-03     0.00000000e+00    
           1.40532327e-03     1.07163226e-03     0.00000000e+00    
           1.41225487e-03     1.07025146e-03     0.00000000e+00    
           1.41923316e-03     1.07015786e-03     0.00000000e+00    
           8.14047467e-04     3.52266914e-04     0.00000000e+00    
           8.21094378e-04     3.57405515e-04     0.00000000e+00    
           8.26450589e-04     3.64640873e-04     0.00000000e+00    
           8.29183788e-04     3.72746494e-04     0.00000000e+00    
           8.30256846e-04     3.81054298e-04     0.00000000e+00    
           8.29547527e-04     3.89486784e-04     0.00000000e+00    
           8.26357515e-04     3.97539057e-04     0.00000000e+00    
           8.20316258e-04     4.04789113e-04     0.00000000e+00    
           8.11939826e-04     4.09057160e-04     0.00000000e+00    
           8.03476549e-04     4.10953362e-04     0.00000000e+00    
           7.94954656e-04     4.11244080e-04     0.00000000e+00    
           7.78523856e-04     4.07338608e-04     0.00000000e+00    
           7.71193649e-04     4.02439473e-04     0.00000000e+00    
           7.65426492e-04     3.95755313e-04     0.00000000e+00    
           7.61764415e-04     3.87706037e-04     0.00000000e+00    
           7.60565395e-04     3.78790981e-04     0.00000000e+00    
           7.61996664e-04     3.69707821e-04     0.00000000e+00    
           7.66060373e-04     3.61549202e-04     0.00000000e+00    
           7.72426836e-04     3.54754622e-04     0.00000000e+00    
           7.80569797e-04     3.50475253e-04     0.00000000e+00    
           7.89084763e-04     3.48190137e-04     0.00000000e+00    
           7.97626446e-04     3.47914523e-04     0.00000000e+00    
           1.87650425e-04     2.42716924e-04     0.00000000e+00    
           1.85710946e-04     2.34376901e-04     0.00000000e+00    
           1.86122285e-04     2.26133619e-04     0.00000000e+00    
           1.88314109e-04     2.18551140e-04     0.00000000e+00    
           1.92050691e-04     2.11543083e-04     0.00000000e+00    
           1.97449801e-04     2.05564080e-04     0.00000000e+00    
           2.05128847e-04     2.01389164e-04     0.00000000e+00    
           2.13258143e-04     2.00359398e-04     0.00000000e+00    
           2.20989648e-04     2.00263254e-04     0.00000000e+00    
           2.36428488e-04     2.04281489e-04     0.00000000e+00    
           2.42995855e-04     2.09280712e-04     0.00000000e+00    
           2.47809250e-04     2.16049666e-04     0.00000000e+00    
           2.50748126e-04     2.23695024e-04     0.00000000e+00    
           2.51821417e-04     2.31409533e-04     0.00000000e+00    
           2.51309481e-04     2.39281828e-04     0.00000000e+00    
           2.48523313e-04     2.47005752e-04     0.00000000e+00    
           2.43611386e-04     2.53671024e-04     0.00000000e+00    
           2.36676118e-04     2.58736778e-04     0.00000000e+00    
           1.47050724e-03     2.62151734e-04     0.00000000e+00    
           1.46269472e-03     2.61129491e-04     0.00000000e+00    
           1.45507965e-03     2.59115157e-04     0.00000000e+00    
           1.44791382e-03     2.55534222e-04     0.00000000e+00    
           4.01294674e-04     5.62222907e-04     0.00000000e+00    
           4.09668952e-04     5.67700132e-04     0.00000000e+00    
           4.16314404e-04     5.75470156e-04     0.00000000e+00    
           4.20351862e-04     5.84907364e-04     0.00000000e+00    
           4.21441568e-04     5.95243589e-04     0.00000000e+00    
           4.19988675e-04     6.05387962e-04     0.00000000e+00    
           4.16163442e-04     6.14628079e-04     0.00000000e+00    
           4.09863802e-04     6.22797932e-04     0.00000000e+00    
           4.01100056e-04     6.28655311e-04     0.00000000e+00    
           3.91348294e-04     6.31975534e-04     0.00000000e+00    
           3.81437916e-04     6.32677344e-04     0.00000000e+00    
           3.62399674e-04     6.27127010e-04     0.00000000e+00    
           3.54604155e-04     6.20639126e-04     0.00000000e+00    
           3.48865666e-04     6.12686388e-04     0.00000000e+00    
           3.44888598e-04     6.03807333e-04     0.00000000e+00    
           3.43155640e-04     5.94083162e-04     0.00000000e+00    
           3.44056782e-04     5.84174180e-04     0.00000000e+00    
           3.47686728e-04     5.74617705e-04     0.00000000e+00    
           3.54077754e-04     5.66604605e-04     0.00000000e+00    
           3.62690713e-04     5.60821674e-04     0.00000000e+00    