<?xml version="1.0"?>
<VTKFile type="UnstructuredGrid" version="0.1">
  <UnstructuredGrid>
    <Piece NumberOfPoints="1034" NumberOfCells="1614">
      <Points>
        <DataArray type="Float32" NumberOfComponents="3">
           5.21582007e-01     5.11657000e-01     0.00000000e+00    
           5.07319987e-01     5.11657000e-01     0.00000000e+00    
           4.65243995e-01     5.17907977e-01     0.00000000e+00    
           4.65243995e-01     5.04921973e-01     0.00000000e+00    
           4.75246996e-01     5.11415005e-01     0.00000000e+00    
           5.33852994e-01     5.04921973e-01     0.00000000e+00    
           5.33852994e-01     5.17907977e-01     0.00000000e+00    
           4.83779997e-01     5.34618974e-01     0.00000000e+00    
           4.68984991e-01     5.34618974e-01     0.00000000e+00    
           4.76381987e-01     5.23841977e-01     0.00000000e+00    
           4.68984991e-01     4.66010004e-01     0.00000000e+00    
           4.83779997e-01     4.66010004e-01     0.00000000e+00    
           4.99920011e-01     5.34618974e-01     0.00000000e+00    
           4.89203990e-01     5.34618974e-01     0.00000000e+00    
           4.94562000e-01     5.22280991e-01     0.00000000e+00    
           4.89203990e-01     4.66010004e-01     0.00000000e+00    
           4.99920011e-01     4.66010004e-01     0.00000000e+00    
           5.32517016e-01     4.74112004e-01     0.00000000e+00    
           5.17961025e-01     4.74112004e-01     0.00000000e+00    
           5.33852994e-01     5.19801974e-01     0.00000000e+00    
           5.33852994e-01     5.29603004e-01     0.00000000e+00    
           5.19536972e-01     5.24702013e-01     0.00000000e+00    
           4.65243995e-01     5.29603004e-01     0.00000000e+00    
           4.65243995e-01     5.19801974e-01     0.00000000e+00    
           4.92487997e-01     5.17117977e-01     0.00000000e+00    
           4.76904988e-01     5.17117977e-01     0.00000000e+00    
           5.17996013e-01     5.27033985e-01     0.00000000e+00    
           5.04473984e-01     5.27033985e-01     0.00000000e+00    
           5.08446991e-01     4.83435005e-01     0.00000000e+00    
           4.94414002e-01     4.83435005e-01     0.00000000e+00    
           4.65243995e-01     4.83101994e-01     0.00000000e+00    
           4.65243995e-01     4.74415004e-01     0.00000000e+00    
           4.78336990e-01     4.78758007e-01     0.00000000e+00    
           5.33852994e-01     4.74415004e-01     0.00000000e+00    
           5.33852994e-01     4.83101994e-01     0.00000000e+00    
           4.80668008e-01     4.95810986e-01     0.00000000e+00    
           4.66084987e-01     4.95810986e-01     0.00000000e+00    
           4.93930012e-01     4.79214013e-01     0.00000000e+00    
           4.78967011e-01     4.79214013e-01     0.00000000e+00    
           5.09284973e-01     4.97658014e-01     0.00000000e+00    
           4.95503992e-01     4.97658014e-01     0.00000000e+00    
           5.33011973e-01     5.01751006e-01     0.00000000e+00    
           5.17829001e-01     5.01751006e-01     0.00000000e+00    
           4.95451003e-01     5.00564992e-01     0.00000000e+00    
           4.80922014e-01     5.00564992e-01     0.00000000e+00    
           5.25367022e-01     4.88312006e-01     0.00000000e+00    
           5.09521008e-01     4.88312006e-01     0.00000000e+00    
           4.65243995e-01     5.34618974e-01     0.00000000e+00    
           4.65243995e-01     4.66010004e-01     0.00000000e+00    
           5.33852994e-01     4.66010004e-01     0.00000000e+00    
           5.33852994e-01     5.34618974e-01     0.00000000e+00    
           5.21338999e-01     5.13502657e-01     0.00000000e+00    
           5.20626605e-01     5.15222490e-01     0.00000000e+00    
           5.19493401e-01     5.16699374e-01     0.00000000e+00    
           5.18016517e-01     5.17832637e-01     0.00000000e+00    
           5.16296625e-01     5.18545032e-01     0.00000000e+00    
           5.14451027e-01     5.18787980e-01     0.00000000e+00    
           5.12605369e-01     5.18545032e-01     0.00000000e+00    
           5.10885477e-01     5.17832637e-01     0.00000000e+00    
           5.09408593e-01     5.16699374e-01     0.00000000e+00    
           5.08275390e-01     5.15222490e-01     0.00000000e+00    
           5.07562995e-01     5.13502657e-01     0.00000000e+00    
           5.07562995e-01     5.09811342e-01     0.00000000e+00    
           5.08275390e-01     5.08091509e-01     0.00000000e+00    
           5.09408593e-01     5.06614625e-01     0.00000000e+00    
           5.10885477e-01     5.05481362e-01     0.00000000e+00    
           5.12605369e-01     5.04768968e-01     0.00000000e+00    
           5.14451027e-01     5.04526019e-01     0.00000000e+00    
           5.16296625e-01     5.04768968e-01     0.00000000e+00    
           5.18016517e-01     5.05481362e-01     0.00000000e+00    
           5.19493401e-01     5.06614625e-01     0.00000000e+00    
           5.20626605e-01     5.08091509e-01     0.00000000e+00    
           5.21338999e-01     5.09811342e-01     0.00000000e+00    
           4.66931671e-01     5.04409373e-01     0.00000000e+00    
           4.68693614e-01     5.04328012e-01     0.00000000e+00    
           4.70421344e-01     5.04682958e-01     0.00000000e+00    
           4.72008497e-01     5.05452335e-01     0.00000000e+00    
           4.73357379e-01     5.06588817e-01     0.00000000e+00    
           4.74384934e-01     5.08022368e-01     0.00000000e+00    
           4.75027919e-01     5.09664834e-01     0.00000000e+00    
           4.75028187e-01     5.13165236e-01     0.00000000e+00    
           4.74385172e-01     5.14807761e-01     0.00000000e+00    
           4.73357558e-01     5.16241372e-01     0.00000000e+00    
           4.72008646e-01     5.17377913e-01     0.00000000e+00    
           4.70421433e-01     5.18147290e-01     0.00000000e+00    
           4.68693614e-01     5.18502235e-01     0.00000000e+00    
           4.66931641e-01     5.18420875e-01     0.00000000e+00    
           5.32303810e-01     5.16964078e-01     0.00000000e+00    
           5.31043947e-01     5.15658796e-01     0.00000000e+00    
           5.30155540e-01     5.14077127e-01     0.00000000e+00    
           5.29696345e-01     5.12322068e-01     0.00000000e+00    
           5.29696345e-01     5.10507941e-01     0.00000000e+00    
           5.30155540e-01     5.08752882e-01     0.00000000e+00    
           5.31043947e-01     5.07171214e-01     0.00000000e+00    
           5.32303810e-01     5.05865932e-01     0.00000000e+00    
           4.68517244e-01     5.32760799e-01     0.00000000e+00    
           4.68509018e-01     5.30844629e-01     0.00000000e+00    
           4.68960851e-01     5.28982460e-01     0.00000000e+00    
           4.69846308e-01     5.27283132e-01     0.00000000e+00    
           4.71113682e-01     5.25845945e-01     0.00000000e+00    
           4.72688884e-01     5.24754822e-01     0.00000000e+00    
           4.74479854e-01     5.24073541e-01     0.00000000e+00    
           4.78284091e-01     5.24073601e-01     0.00000000e+00    
           4.80075032e-01     5.24754822e-01     0.00000000e+00    
           4.81650203e-01     5.25845885e-01     0.00000000e+00    
           4.82917547e-01     5.27283013e-01     0.00000000e+00    
           4.83803004e-01     5.28982282e-01     0.00000000e+00    
           4.84254897e-01     5.30844331e-01     0.00000000e+00    
           4.84246761e-01     5.32760441e-01     0.00000000e+00    
           4.82887864e-01     4.67691004e-01     0.00000000e+00    
           4.81620818e-01     4.69110936e-01     0.00000000e+00    
           4.80051905e-01     4.70188022e-01     0.00000000e+00    
           4.78271484e-01     4.70860153e-01     0.00000000e+00    
           4.76382166e-01     4.71088618e-01     0.00000000e+00    
           4.74492878e-01     4.70860243e-01     0.00000000e+00    
           4.72712427e-01     4.70188200e-01     0.00000000e+00    
           4.71143454e-01     4.69111174e-01     0.00000000e+00    
           4.69876349e-01     4.67691302e-01     0.00000000e+00    
           4.88103986e-01     5.33086061e-01     0.00000000e+00    
           4.87431526e-01     5.31323195e-01     0.00000000e+00    
           4.87231195e-01     5.29447019e-01     0.00000000e+00    
           4.87516224e-01     5.27581930e-01     0.00000000e+00    
           4.88267750e-01     5.25851250e-01     0.00000000e+00    
           4.89436030e-01     5.24369657e-01     0.00000000e+00    
           4.90943670e-01     5.23235261e-01     0.00000000e+00    
           4.92690891e-01     5.22523046e-01     0.00000000e+00    
           4.96432930e-01     5.22523701e-01     0.00000000e+00    
           4.98180002e-01     5.23235798e-01     0.00000000e+00    
           4.99687493e-01     5.24370134e-01     0.00000000e+00    
           5.00855684e-01     5.25851607e-01     0.00000000e+00    
           5.01607120e-01     5.27582109e-01     0.00000000e+00    
           5.01892149e-01     5.29447079e-01     0.00000000e+00    
           5.01691818e-01     5.31323016e-01     0.00000000e+00    
           5.01019418e-01     5.33085763e-01     0.00000000e+00    
           4.98371124e-01     4.67269689e-01     0.00000000e+00    
           4.96539861e-01     4.68064904e-01     0.00000000e+00    
           4.94562000e-01     4.68336672e-01     0.00000000e+00    
           4.92584139e-01     4.68064904e-01     0.00000000e+00    
           4.90752876e-01     4.67269689e-01     0.00000000e+00    
           5.32269001e-01     4.75995690e-01     0.00000000e+00    
           5.31541944e-01     4.77750987e-01     0.00000000e+00    
           5.30385315e-01     4.79258329e-01     0.00000000e+00    
           5.28877974e-01     4.80414927e-01     0.00000000e+00    
[...]
      <PointData>
        <DataArray type="Float32" Name="Displacement" NumberOfComponents="3">
           7.35070556e-04     6.45373308e-04     0.00000000e+00    
           7.15938862e-04     6.37889432e-04     0.00000000e+00    
          -5.97523467e-06     6.62257022e-04     0.00000000e+00    
          -1.74720117e-06     6.44411717e-04     0.00000000e+00    
           1.08762324e-05     6.58126490e-04     0.00000000e+00    
           9.48252797e-04     6.44411717e-04     0.00000000e+00    
           9.44024767e-04     6.62257022e-04     0.00000000e+00    
           1.45877653e-04     9.29958886e-04     0.00000000e+00    
           1.26097366e-04     9.39431950e-04     0.00000000e+00    
           1.29592096e-04     9.19152226e-04     0.00000000e+00    
           1.26097366e-04    -1.05680610e-05     0.00000000e+00    
           1.45877653e-04    -2.00411032e-05     0.00000000e+00    
           3.46795568e-04     8.92499345e-04     0.00000000e+00    
           3.30531155e-04     8.98520229e-04     0.00000000e+00    
           3.31394956e-04     8.79700936e-04     0.00000000e+00    
           3.30531155e-04    -5.14797721e-05     0.00000000e+00    
           3.46795568e-04    -5.75006379e-05     0.00000000e+00    
           8.75009340e-04     1.43102123e-04     0.00000000e+00    
           8.55288235e-04     1.47957951e-04     0.00000000e+00    
           8.71434400e-04     8.17187072e-04     0.00000000e+00    
           8.74121150e-04     8.31298821e-04     0.00000000e+00    
           8.52896657e-04     8.26982316e-04     0.00000000e+00    
          -7.58788665e-05     8.31298821e-04     0.00000000e+00    
          -7.85656011e-05     8.17187072e-04     0.00000000e+00    
           2.13702908e-04     7.54238339e-04     0.00000000e+00    
           1.93079031e-04     7.60454102e-04     0.00000000e+00    
           6.81941456e-04     8.35041748e-04     0.00000000e+00    
           6.62588980e-04     8.26002040e-04     0.00000000e+00    
           4.82709904e-04     3.11895710e-04     0.00000000e+00    
           4.63174045e-04     3.04614485e-04     0.00000000e+00    
           7.92573846e-05     1.85524754e-04     0.00000000e+00    
           7.95525775e-05     1.74184082e-04     0.00000000e+00    
           9.79038159e-05     1.80346047e-04     0.00000000e+00    
           1.02955254e-03     1.74184082e-04     0.00000000e+00    
           1.02925743e-03     1.85524754e-04     0.00000000e+00    
           9.93681024e-05     4.65864723e-04     0.00000000e+00    
           7.93825238e-05     4.63614531e-04     0.00000000e+00    
           2.48917611e-04     2.08569851e-04     0.00000000e+00    
           2.28098274e-04     1.93197979e-04     0.00000000e+00    
           5.01107716e-04     4.18184383e-04     0.00000000e+00    
           4.81313386e-04     4.34708054e-04     0.00000000e+00    
           8.41966597e-04     5.42663678e-04     0.00000000e+00    
           8.20386223e-04     5.42303431e-04     0.00000000e+00    
           2.73208512e-04     5.03025716e-04     0.00000000e+00    
           2.52925034e-04     5.14610554e-04     0.00000000e+00    
           7.21775636e-04     3.61936778e-04     0.00000000e+00    
           6.99289085e-04     3.51213064e-04     0.00000000e+00    
           0.00000000e+00     9.50000016e-04     0.00000000e+00    
           0.00000000e+00     0.00000000e+00     0.00000000e+00    
           9.50000016e-04     0.00000000e+00     0.00000000e+00    
           9.50000016e-04     9.50000016e-04     0.00000000e+00    
           7.33547553e-04     6.48993242e-04     0.00000000e+00    
           7.31664477e-04     6.51208160e-04     0.00000000e+00    
           7.29331688e-04     6.52747869e-04     0.00000000e+00    
           7.26776256e-04     6.53582450e-04     0.00000000e+00    
           7.23966921e-04     6.53519528e-04     0.00000000e+00    
           7.21371965e-04     6.52577088e-04     0.00000000e+00    
           7.19677366e-04     6.51161710e-04     0.00000000e+00    
           7.18225259e-04     6.49441732e-04     0.00000000e+00    
           7.16662849e-04     6.47180364e-04     0.00000000e+00    
           7.15554925e-04     6.44042448e-04     0.00000000e+00    
           7.15325994e-04     6.40919956e-04     0.00000000e+00    
           7.17203657e-04     6.35008502e-04     0.00000000e+00    
           7.19239528e-04     6.33129501e-04     0.00000000e+00    
           7.21447344e-04     6.31931587e-04     0.00000000e+00    
           7.23826524e-04     6.31342467e-04     0.00000000e+00    
           7.26618629e-04     6.31366333e-04     0.00000000e+00    
           7.29951134e-04     6.32079842e-04     0.00000000e+00    
           7.33018038e-04     6.33786840e-04     0.00000000e+00    
           7.34843896e-04     6.36067765e-04     0.00000000e+00    
           7.35509384e-04     6.38181751e-04     0.00000000e+00    
           7.35614914e-04     6.40198414e-04     0.00000000e+00    
           7.35355774e-04     6.42431551e-04     0.00000000e+00    
           1.42892952e-06     6.43508858e-04     0.00000000e+00    
           4.47333605e-06     6.44293963e-04     0.00000000e+00    
           6.37437915e-06     6.45510794e-04     0.00000000e+00    
           8.06867774e-06     6.47050561e-04     0.00000000e+00    
           9.68491713e-06     6.49250462e-04     0.00000000e+00    
           1.08730219e-05     6.51992625e-04     0.00000000e+00    
           1.12711241e-05     6.55319891e-04     0.00000000e+00    
           9.74360501e-06     6.60260150e-04     0.00000000e+00    
           8.42630925e-06     6.61835889e-04     0.00000000e+00    
           6.59708758e-06     6.63369661e-04     0.00000000e+00    
           4.23781603e-06     6.64522988e-04     0.00000000e+00    
           1.50021253e-06     6.65075146e-04     0.00000000e+00    
          -1.68902955e-06     6.64997962e-04     0.00000000e+00    
          -4.34152207e-06     6.63666928e-04     0.00000000e+00    
           9.43078019e-04     6.60630292e-04     0.00000000e+00    
           9.42497631e-04     6.58867124e-04     0.00000000e+00    
           9.41692502e-04     6.55989337e-04     0.00000000e+00    
           9.41497332e-04     6.52728078e-04     0.00000000e+00    
           9.42379120e-04     6.49404770e-04     0.00000000e+00    
           9.43663588e-04     6.47265115e-04     0.00000000e+00    
           9.44971922e-04     6.46144385e-04     0.00000000e+00    
           9.46473912e-04     6.45265158e-04     0.00000000e+00    
           1.23863865e-04     9.36405500e-04     0.00000000e+00    
           1.22726167e-04     9.33490926e-04     0.00000000e+00    
           1.22126366e-04     9.31015587e-04     0.00000000e+00    
           1.21969584e-04     9.28350957e-04     0.00000000e+00    
           1.22616373e-04     9.25568806e-04     0.00000000e+00    
           1.24315469e-04     9.22824780e-04     0.00000000e+00    
           1.26854517e-04     9.20557766e-04     0.00000000e+00    
           1.32342771e-04     9.18347971e-04     0.00000000e+00    
           1.34561007e-04     9.17959143e-04     0.00000000e+00    
           1.36986841e-04     9.18039936e-04     0.00000000e+00    
           1.39840107e-04     9.18698264e-04     0.00000000e+00    
           1.42631150e-04     9.20974708e-04     0.00000000e+00    
           1.44473379e-04     9.23576299e-04     0.00000000e+00    
           1.45684215e-04     9.26373468e-04     0.00000000e+00    
           1.45293568e-04    -1.66655063e-05     0.00000000e+00    
           1.44203819e-04    -1.36715917e-05     0.00000000e+00    
           1.42767341e-04    -1.12977223e-05     0.00000000e+00    
           1.40709119e-04    -9.20227103e-06     0.00000000e+00    
           1.38447911e-04    -8.08461391e-06     0.00000000e+00    
           1.36371309e-04    -7.35039157e-06     0.00000000e+00    
           1.34231726e-04    -6.88669888e-06     0.00000000e+00    
           1.31797118e-04    -7.12751716e-06     0.00000000e+00    
           1.28686661e-04    -8.35693390e-06     0.00000000e+00    
           3.27989197e-04     8.96480225e-04     0.00000000e+00    
           3.26161738e-04     8.94112687e-04     0.00000000e+00    
           3.25060653e-04     8.91611096e-04     0.00000000e+00    
           3.24620545e-04     8.88503913e-04     0.00000000e+00    
           3.25416971e-04     8.85796791e-04     0.00000000e+00    
           3.26192210e-04     8.84032459e-04     0.00000000e+00    
           3.27242160e-04     8.82401248e-04     0.00000000e+00    
           3.28602415e-04     8.80952692e-04     0.00000000e+00    
           3.34971584e-04     8.79157044e-04     0.00000000e+00    
           3.38495680e-04     8.79604311e-04     0.00000000e+00    
           3.41417443e-04     8.80769745e-04     0.00000000e+00    
           3.43504274e-04     8.82023596e-04     0.00000000e+00    
           3.44944448e-04     8.83141125e-04     0.00000000e+00    
           3.46289045e-04     8.84518609e-04     0.00000000e+00    
           3.47207126e-04     8.86471360e-04     0.00000000e+00    
           3.47503461e-04     8.89221905e-04     0.00000000e+00    
           3.45008797e-04    -5.45525618e-05     0.00000000e+00    
           3.42478947e-04    -5.22215378e-05     0.00000000e+00    
           3.39608552e-04    -5.06739889e-05     0.00000000e+00    
           3.36506986e-04    -5.00977549e-05     0.00000000e+00    
           3.33604839e-04    -5.03390183e-05     0.00000000e+00    
           8.75168829e-04     1.45199752e-04     0.00000000e+00    
           8.74966732e-04     1.47055849e-04     0.00000000e+00    
           8.74277379e-04     1.49176398e-04     0.00000000e+00    
           8.71796918e-04     1.51857603e-04     0.00000000e+00    
           8.68540897e-04     1.53716261e-04     0.00000000e+00    
           8.65772250e-04     1.54317735e-04     0.00000000e+00    
           8.63828929e-04     1.54880167e-04     0.00000000e+00    
           8.62011861e-04     1.54901572e-04     0.00000000e+00    
           8.60417262e-04     1.54574358e-04     0.00000000e+00    
           8.58347979e-04     1.53512636e-04     0.00000000e+00    
           8.56396917e-04     1.51325497e-04     0.00000000e+00    
           8.54880200e-04     1.44743433e-04     0.00000000e+00    
           8.55496735e-04     1.41218843e-04     0.00000000e+00    
           8.56883300e-04     1.38385149e-04     0.00000000e+00    
           8.58718995e-04     1.36314979e-04     0.00000000e+00    
           8.60691245e-04     1.35066075e-04     0.00000000e+00    
           8.62564659e-04     1.34237969e-04     0.00000000e+00    
           8.64607049e-04     1.33760579e-04     0.00000000e+00    
           8.67052819e-04     1.33912952e-04     0.00000000e+00    
           8.69934447e-04     1.35169757e-04     0.00000000e+00    
           8.72464676e-04     1.37574418e-04     0.00000000e+00    
           8.74304504e-04     1.40393036e-04     0.00000000e+00    
           8.72483361e-04     8.33611470e-04     0.00000000e+00    
           8.70114658e-04     8.35481624e-04     0.00000000e+00    
           8.67442111e-04     8.36705556e-04     0.00000000e+00    
           8.65038310e-04     8.36974883e-04     0.00000000e+00    
           8.62679852e-04     8.36879946e-04     0.00000000e+00    
           8.59770516e-04     8.36039020e-04     0.00000000e+00    
           8.56894010e-04     8.33756640e-04     0.00000000e+00    
           8.54836777e-04     8.31272046e-04     0.00000000e+00    
           8.53627571e-04     8.29079479e-04     0.00000000e+00    
           8.52602825e-04     8.24299292e-04     0.00000000e+00    
           8.53294565e-04     8.21444090e-04     0.00000000e+00    
           8.54746904e-04     8.18874163e-04     0.00000000e+00    
           8.56811355e-04     8.16924497e-04     0.00000000e+00    
           8.59241234e-04     8.15446198e-04     0.00000000e+00    
           8.62649526e-04     8.14529369e-04     0.00000000e+00    
           8.65731155e-04     8.14627274e-04     0.00000000e+00    
           8.67944385e-04     8.15017789e-04     0.00000000e+00    
           8.69787997e-04     8.15910054e-04     0.00000000e+00    
          -7.68217287e-05     8.19097913e-04     0.00000000e+00    
          -7.54637149e-05     8.21849215e-04     0.00000000e+00    
          -7.47816302e-05     8.24645278e-04     0.00000000e+00    
          -7.48290840e-05     8.27240234e-04     0.00000000e+00    
          -7.51481784e-05     8.29202123e-04     0.00000000e+00    
           2.14202853e-04     7.57570844e-04     0.00000000e+00    
           2.13822597e-04     7.60777155e-04     0.00000000e+00    
           2.13327643e-04     7.62836891e-04     0.00000000e+00    
           2.12685540e-04     7.64772587e-04     0.00000000e+00    
           2.11352628e-04     7.66725687e-04     0.00000000e+00    
           2.08809040e-04     7.68624712e-04     0.00000000e+00    
           2.05815581e-04     7.69280829e-04     0.00000000e+00    
           2.03382646e-04     7.69426289e-04     0.00000000e+00    
           2.01131217e-04     7.69103761e-04     0.00000000e+00    
           1.99089511e-04     7.68418948e-04     0.00000000e+00    
           1.96356777e-04     7.66583253e-04     0.00000000e+00    
           1.94380991e-04     7.63296208e-04     0.00000000e+00    
           1.92577383e-04     7.57640344e-04     0.00000000e+00    
           1.92545616e-04     7.55224028e-04     0.00000000e+00    
           1.93146727e-04     7.52564229e-04     0.00000000e+00    
           1.94906068e-04     7.49919156e-04     0.00000000e+00    
           1.97261164e-04     7.48003600e-04     0.00000000e+00    
           1.99756527e-04     7.46810576e-04     0.00000000e+00    
           2.01553441e-04     7.46119418e-04     0.00000000e+00    
           2.03280491e-04     7.45643396e-04     0.00000000e+00    
           2.05528559e-04     7.45743397e-04     0.00000000e+00    
           2.08040015e-04     7.46659643e-04     0.00000000e+00    
           2.10510087e-04     7.48587656e-04     0.00000000e+00    
           2.12454179e-04     7.51205662e-04     0.00000000e+00    
           6.80339464e-04     8.37108877e-04     0.00000000e+00    
           6.77778269e-04     8.39255692e-04     0.00000000e+00    
           6.74577197e-04     8.40538531e-04     0.00000000e+00    
           6.71205227e-04     8.40810069e-04     0.00000000e+00    
           6.67702290e-04     8.40053079e-04     0.00000000e+00    
           6.64531777e-04     8.38369539e-04     0.00000000e+00    
           6.62043400e-04     8.35895946e-04     0.00000000e+00    
           6.60733902e-04     8.32939404e-04     0.00000000e+00    
           6.60378311e-04     8.30077217e-04     0.00000000e+00    
           6.61203754e-04     8.27779819e-04     0.00000000e+00    
           6.64307154e-04     8.24520073e-04     0.00000000e+00    
           6.66530512e-04     8.22639558e-04     0.00000000e+00    
           6.69718429e-04     8.21101654e-04     0.00000000e+00    
           6.73665141e-04     8.20040819e-04     0.00000000e+00    
           6.77024247e-04     8.20599147e-04     0.00000000e+00    
           6.79197547e-04     8.21989437e-04     0.00000000e+00    
           6.80928177e-04     8.23728857e-04     0.00000000e+00    
           6.82887447e-04     8.26344301e-04     0.00000000e+00    
           6.83568069e-04     8.29900790e-04     0.00000000e+00    
           6.83164631e-04     8.32810241e-04     0.00000000e+00    
           4.81932890e-04     3.13753466e-04     0.00000000e+00    
           4.80598945e-04     3.15340876e-04     0.00000000e+00    
           4.78790258e-04     3.17172176e-04     0.00000000e+00    
           4.75757115e-04     3.18441744e-04     0.00000000e+00    
           4.73268505e-04     3.18539503e-04     0.00000000e+00    
           4.71354928e-04     3.18058446e-04     0.00000000e+00    
           4.69310500e-04     3.17119237e-04     0.00000000e+00    
           4.66788217e-04     3.15673708e-04     0.00000000e+00    
           4.64207958e-04     3.12841381e-04     0.00000000e+00    
           4.62937867e-04     3.09553783e-04     0.00000000e+00    
           4.62682598e-04     3.06671398e-04     0.00000000e+00    
           4.63820499e-04     3.03296343e-04     0.00000000e+00    
           4.64790937e-04     3.01984925e-04     0.00000000e+00    
           4.66138561e-04     3.00743006e-04     0.00000000e+00    
           4.68129874e-04     2.99569714e-04     0.00000000e+00    
           4.70783765e-04     2.98761064e-04     0.00000000e+00    
           4.73813387e-04     2.98699655e-04     0.00000000e+00    
           4.76723799e-04     2.99675186e-04     0.00000000e+00    
           4.79356153e-04     3.01391119e-04     0.00000000e+00    
           4.81574942e-04     3.03970766e-04     0.00000000e+00    
           4.82855452e-04     3.06795468e-04     0.00000000e+00    
           4.83183598e-04     3.09676805e-04     0.00000000e+00    
           8.13428196e-05     1.72449727e-04     0.00000000e+00    
           8.40532593e-05     1.70624073e-04     0.00000000e+00    
           8.69972791e-05     1.69790757e-04     0.00000000e+00    
           8.94133700e-05     1.69881736e-04     0.00000000e+00    
           9.13843542e-05     1.70304091e-04     0.00000000e+00    
           9.31489267e-05     1.71146006e-04     0.00000000e+00    
           9.54585048e-05     1.72783359e-04     0.00000000e+00    
           9.72321504e-05     1.75908761e-04     0.00000000e+00    
           9.78507669e-05     1.78416114e-04     0.00000000e+00    
           9.76029551e-05     1.82329881e-04     0.00000000e+00    
           9.66897715e-05     1.84663237e-04     0.00000000e+00    
           9.46738073e-05     1.87267899e-04     0.00000000e+00    
           9.20812381e-05     1.89155297e-04     0.00000000e+00    
           8.98205908e-05     1.89845741e-04     0.00000000e+00    
           8.80156222e-05     1.90077510e-04     0.00000000e+00    
           8.59762222e-05     1.89933766e-04     0.00000000e+00    
           8.37839543e-05     1.89225961e-04     0.00000000e+00    
           8.13731822e-05     1.87764163e-04     0.00000000e+00    
           1.02787733e-03     1.82523727e-04     0.00000000e+00    
           1.02750526e-03     1.79434544e-04     0.00000000e+00    
           1.02791411e-03     1.77372844e-04     0.00000000e+00    
           1.02860213e-03     1.75815236e-04     0.00000000e+00    
           9.87857347e-05     4.67687874e-04     0.00000000e+00    
           9.77822783e-05     4.69346473e-04     0.00000000e+00    
           9.62728955e-05     4.71251115e-04     0.00000000e+00    
           9.35298376e-05     4.73081192e-04     0.00000000e+00    
           9.01705134e-05     4.74212109e-04     0.00000000e+00    
           8.72207602e-05     4.74274799e-04     0.00000000e+00    
           8.49993521e-05     4.73638327e-04     0.00000000e+00    
           8.30682911e-05     4.72718297e-04     0.00000000e+00    
           8.10515485e-05     4.70985717e-04     0.00000000e+00    
           7.96925015e-05     4.68705548e-04     0.00000000e+00    
           7.92789142e-05     4.66166501e-04     0.00000000e+00    
           8.01587084e-05     4.60799143e-04     0.00000000e+00    
           8.17726104e-05     4.57771996e-04     0.00000000e+00    
           8.42556474e-05     4.55319328e-04     0.00000000e+00    
           8.66355113e-05     4.54154389e-04     0.00000000e+00    
           8.86887792e-05     4.53646615e-04     0.00000000e+00    
           9.05845882e-05     4.53571382e-04     0.00000000e+00    
           9.24490450e-05     4.53936518e-04     0.00000000e+00    
           9.45918582e-05     4.55014640e-04     0.00000000e+00    
           9.66833395e-05     4.56940470e-04     0.00000000e+00    