<?xml version="1.0"?>
<VTKFile type="UnstructuredGrid" version="0.1">
  <UnstructuredGrid>
    <Piece NumberOfPoints="1034" NumberOfCells="1614">
      <Points>
        <DataArray type="Float32" NumberOfComponents="3">
           5.21582007e-01     5.11657000e-01     0.00000000e+00    
           5.07319987e-01     5.11657000e-01     0.00000000e+00    
           4.65243995e-01     5.17907977e-01     0.00000000e+00    
           4.65243995e-01     5.04921973e-01     0.00000000e+00    
           4.75246996e-01     5.11415005e-01     0.00000000e+00    
           5.33852994e-01     5.04921973e-01     0.00000000e+00    
           5.33852994e-01     5.17907977e-01     0.00000000e+00    
           4.83779997e-01     5.34618974e-01     0.00000000e+00    
           4.68984991e-01     5.34618974e-01     0.00000000e+00    
           4.76381987e-01     5.23841977e-01     0.00000000e+00    
           4.68984991e-01     4.66010004e-01     0.00000000e+00    
           4.83779997e-01     4.66010004e-01     0.00000000e+00    
           4.99920011e-01     5.34618974e-01     0.00000000e+00    
           4.89203990e-01     5.34618974e-01     0.00000000e+00    
           4.94562000e-01     5.22280991e-01     0.00000000e+00    
           4.89203990e-01     4.66010004e-01     0.00000000e+00    
           4.99920011e-01     4.66010004e-01     0.00000000e+00    
           5.32517016e-01     4.74112004e-01     0.00000000e+00    
           5.17961025e-01     4.74112004e-01     0.00000000e+00    
           5.33852994e-01     5.19801974e-01     0.00000000e+00    
           5.33852994e-01     5.29603004e-01     0.00000000e+00    
           5.19536972e-01     5.24702013e-01     0.00000000e+00    
           4.65243995e-01     5.29603004e-01     0.00000000e+00    
           4.65243995e-01     5.19801974e-01     0.00000000e+00    
           4.92487997e-01     5.17117977e-01     0.00000000e+00    
           4.76904988e-01     5.17117977e-01     0.00000000e+00    
           5.17996013e-01     5.27033985e-01     0.00000000e+00    
           5.04473984e-01     5.27033985e-01     0.00000000e+00    
           5.08446991e-01     4.83435005e-01     0.00000000e+00    
           4.94414002e-01     4.83435005e-01     0.00000000e+00    
           4.65243995e-01     4.83101994e-01     0.00000000e+00    
           4.65243995e-01     4.74415004e-01     0.00000000e+00    
           4.78336990e-01     4.78758007e-01     0.00000000e+00    
           5.33852994e-01     4.74415004e-01     0.00000000e+00    
           5.33852994e-01     4.83101994e-01     0.00000000e+00    
           4.80668008e-01     4.95810986e-01     0.00000000e+00    
           4.66084987e-01     4.95810986e-01     0.00000000e+00    
           4.93930012e-01     4.79214013e-01     0.00000000e+00    
           4.78967011e-01     4.79214013e-01     0.00000000e+00    
           5.09284973e-01     4.97658014e-01     0.00000000e+00    
           4.95503992e-01     4.97658014e-01     0.00000000e+00    
           5.33011973e-01     5.01751006e-01     0.00000000e+00    
           5.17829001e-01     5.01751006e-01     0.00000000e+00    
           4.95451003e-01     5.00564992e-01     0.00000000e+00    
           4.80922014e-01     5.00564992e-01     0.00000000e+00    
           5.25367022e-01     4.88312006e-01     0.00000000e+00    
           5.09521008e-01     4.88312006e-01     0.00000000e+00    
           4.65243995e-01     5.34618974e-01     0.00000000e+00    
           4.65243995e-01     4.66010004e-01     0.00000000e+00    
           5.33852994e-01     4.66010004e-01     0.00000000e+00    
           5.33852994e-01     5.34618974e-01     0.00000000e+00    
           5.21338999e-01     5.13502657e-01     0.00000000e+00    
           5.20626605e-01     5.15222490e-01     0.00000000e+00    
           5.19493401e-01     5.16699374e-01     0.00000000e+00    
           5.18016517e-01     5.17832637e-01     0.00000000e+00    
           5.16296625e-01     5.18545032e-01     0.00000000e+00    
           5.14451027e-01     5.18787980e-01     0.00000000e+00    
           5.12605369e-01     5.18545032e-01     0.00000000e+00    
           5.10885477e-01     5.17832637e-01     0.00000000e+00    
           5.09408593e-01     5.16699374e-01     0.00000000e+00    
           5.08275390e-01     5.15222490e-01     0.00000000e+00    
           5.07562995e-01     5.13502657e-01     0.00000000e+00    
           5.07562995e-01     5.09811342e-01     0.00000000e+00    
           5.08275390e-01     5.08091509e-01     0.00000000e+00    
           5.09408593e-01     5.06614625e-01     0.00000000e+00    
           5.10885477e-01     5.05481362e-01     0.00000000e+00    
           5.12605369e-01     5.04768968e-01     0.00000000e+00    
           5.14451027e-01     5.04526019e-01     0.00000000e+00    
           5.16296625e-01     5.04768968e-01     0.00000000e+00    
           5.18016517e-01     5.05481362e-01     0.00000000e+00    
           5.19493401e-01     5.06614625e-01     0.00000000e+00    
           5.20626605e-01     5.08091509e-01     0.00000000e+00    
           5.21338999e-01     5.09811342e-01     0.00000000e+00    
           4.66931671e-01     5.04409373e-01     0.00000000e+00    
           4.68693614e-01     5.04328012e-01     0.00000000e+00    
           4.70421344e-01     5.04682958e-01     0.00000000e+00    
           4.72008497e-01     5.05452335e-01     0.00000000e+00    
           4.73357379e-01     5.06588817e-01     0.00000000e+00    
           4.74384934e-01     5.08022368e-01     0.00000000e+00    
           4.75027919e-01     5.09664834e-01     0.00000000e+00    
           4.75028187e-01     5.13165236e-01     0.00000000e+00    
           4.74385172e-01     5.14807761e-01     0.00000000e+00    
           4.73357558e-01     5.16241372e-01     0.00000000e+00    
           4.72008646e-01     5.17377913e-01     0.00000000e+00    
           4.70421433e-01     5.18147290e-01     0.00000000e+00    
           4.68693614e-01     5.18502235e-01     0.00000000e+00    
           4.66931641e-01     5.18420875e-01     0.00000000e+00    
           5.32303810e-01     5.16964078e-01     0.00000000e+00    
           5.31043947e-01     5.15658796e-01     0.00000000e+00    
           5.30155540e-01     5.14077127e-01     0.00000000e+00    
           5.29696345e-01     5.12322068e-01     0.00000000e+00    
           5.29696345e-01     5.10507941e-01     0.00000000e+00    
           5.30155540e-01     5.08752882e-01     0.00000000e+00    
           5.31043947e-01     5.07171214e-01     0.00000000e+00    
           5.32303810e-01     5.05865932e-01     0.00000000e+00    
           4.68517244e-01     5.32760799e-01     0.00000000e+00    
           4.68509018e-01     5.30844629e-01     0.00000000e+00    
           4.68960851e-01     5.28982460e-01     0.00000000e+00    
           4.69846308e-01     5.27283132e-01     0.00000000e+00    
           4.71113682e-01     5.25845945e-01     0.00000000e+00    
           4.72688884e-01     5.24754822e-01     0.00000000e+00    
           4.74479854e-01     5.24073541e-01     0.00000000e+00    
           4.78284091e-01     5.24073601e-01     0.00000000e+00    
           4.80075032e-01     5.24754822e-01     0.00000000e+00    
           4.81650203e-01     5.25845885e-01     0.00000000e+00    
           4.82917547e-01     5.27283013e-01     0.00000000e+00    
           4.83803004e-01     5.28982282e-01     0.00000000e+00    
           4.84254897e-01     5.30844331e-01     0.00000000e+00    
           4.84246761e-01     5.32760441e-01     0.00000000e+00    
           4.82887864e-01     4.67691004e-01     0.00000000e+00    
           4.81620818e-01     4.69110936e-01     0.00000000e+00    
           4.80051905e-01     4.70188022e-01     0.00000000e+00    
           4.78271484e-01     4.70860153e-01     0.00000000e+00    
           4.76382166e-01     4.71088618e-01     0.00000000e+00    
           4.74492878e-01     4.70860243e-01     0.00000000e+00    
           4.72712427e-01     4.70188200e-01     0.00000000e+00    
           4.71143454e-01     4.69111174e-01     0.00000000e+00    
           4.69876349e-01     4.67691302e-01     0.00000000e+00    
           4.88103986e-01     5.33086061e-01     0.00000000e+00    
           4.87431526e-01     5.31323195e-01     0.00000000e+00    
           4.87231195e-01     5.29447019e-01     0.00000000e+00    
           4.87516224e-01     5.27581930e-01     0.00000000e+00    
           4.88267750e-01     5.25851250e-01     0.00000000e+00    
           4.89436030e-01     5.24369657e-01     0.00000000e+00    
           4.90943670e-01     5.23235261e-01     0.00000000e+00    
           4.92690891e-01     5.22523046e-01     0.00000000e+00    
           4.96432930e-01     5.22523701e-01     0.00000000e+00    
           4.98180002e-01     5.23235798e-01     0.00000000e+00    
           4.99687493e-01     5.24370134e-01     0.00000000e+00    
           5.00855684e-01     5.25851607e-01     0.00000000e+00    
           5.01607120e-01     5.27582109e-01     0.00000000e+00    
           5.01892149e-01     5.29447079e-01     0.00000000e+00    
           5.01691818e-01     5.31323016e-01     0.00000000e+00    
           5.01019418e-01     5.33085763e-01     0.00000000e+00    
           4.98371124e-01     4.67269689e-01     0.00000000e+00    
           4.96539861e-01     4.68064904e-01     0.00000000e+00    
           4.94562000e-01     4.68336672e-01     0.00000000e+00    
           4.92584139e-01     4.68064904e-01     0.00000000e+00    
           4.90752876e-01     4.67269689e-01     0.00000000e+00    
           5.32269001e-01     4.75995690e-01     0.00000000e+00    
           5.31541944e-01     4.77750987e-01     0.00000000e+00    
           5.30385315e-01     4.79258329e-01     0.00000000e+00    
           5.28877974e-01     4.80414927e-01     0.00000000e+00    
[...]
      <PointData>
        <DataArray type="Float32" Name="Displacement" NumberOfComponents="3">
           3.97169897e-05     3.13009987e-05     0.00000000e+00    
           3.81879363e-05     3.18642633e-05     0.00000000e+00    
          -2.96661960e-06     3.42138410e-05     0.00000000e+00    
          -3.13518080e-06     3.12840930e-05     0.00000000e+00    
          -1.42796409e-06     3.32320669e-05     0.00000000e+00    
           4.68648177e-05     3.12840930e-05     0.00000000e+00    
           4.70333798e-05     3.42138410e-05     0.00000000e+00    
           8.54636255e-06     4.80887757e-05     0.00000000e+00    
           6.74050489e-06     4.95280801e-05     0.00000000e+00    
           6.76282343e-06     4.71418098e-05     0.00000000e+00    
           6.74050489e-06    -4.71920202e-07     0.00000000e+00    
           8.54636255e-06    -1.91122535e-06     0.00000000e+00    
           1.98386933e-05     4.39770047e-05     0.00000000e+00    
           1.82994554e-05     4.53653738e-05     0.00000000e+00    
           1.71835036e-05     4.32532324e-05     0.00000000e+00    
           1.82994554e-05    -4.63462766e-06     0.00000000e+00    
           1.98386933e-05    -6.02299406e-06     0.00000000e+00    
           4.82720498e-05     9.50360663e-06     0.00000000e+00    
           4.59139846e-05     1.10602514e-05     0.00000000e+00    
           4.57824754e-05     4.12593399e-05     0.00000000e+00    
           4.65842531e-05     4.33428577e-05     0.00000000e+00    
           4.39816686e-05     4.34656249e-05     0.00000000e+00    
          -3.41574855e-06     4.33428577e-05     0.00000000e+00    
          -4.21752520e-06     4.12593399e-05     0.00000000e+00    
           1.11800437e-05     3.88836852e-05     0.00000000e+00    
           9.18857586e-06     3.94879353e-05     0.00000000e+00    
           3.65342312e-05     4.29608590e-05     0.00000000e+00    
           3.37284946e-05     4.13152193e-05     0.00000000e+00    
           2.60290581e-05     1.80981533e-05     0.00000000e+00    
           2.27012224e-05     1.49554853e-05     0.00000000e+00    
           5.98855195e-06     1.02194535e-05     0.00000000e+00    
           4.12757845e-06     9.19199374e-06     0.00000000e+00    
           7.98616384e-06     8.17157161e-06     0.00000000e+00    
           5.41275767e-05     9.19199374e-06     0.00000000e+00    
           5.59885520e-05     1.02194535e-05     0.00000000e+00    
           7.01099862e-06     2.52814389e-05     0.00000000e+00    
           4.55635245e-06     2.33252777e-05     0.00000000e+00    
           1.60632353e-05     1.11757126e-05     0.00000000e+00    
           1.22945958e-05     8.91905802e-06     0.00000000e+00    
           2.37903896e-05     2.16259523e-05     0.00000000e+00    
           2.05502911e-05     2.31362828e-05     0.00000000e+00    
           4.37380186e-05     2.77184517e-05     0.00000000e+00    
           4.14234128e-05     2.71809658e-05     0.00000000e+00    
           1.67757862e-05     2.55270079e-05     0.00000000e+00    
           1.31212037e-05     2.73410187e-05     0.00000000e+00    
           3.96684300e-05     2.09768859e-05     0.00000000e+00    
           3.69339177e-05     1.92228654e-05     0.00000000e+00    
           0.00000000e+00     4.99999987e-05     0.00000000e+00    
           0.00000000e+00     0.00000000e+00     0.00000000e+00    
           4.99999987e-05     0.00000000e+00     0.00000000e+00    
           4.99999987e-05     4.99999987e-05     0.00000000e+00    
           3.96323121e-05     3.17115082e-05     0.00000000e+00    
           3.96243631e-05     3.20503314e-05     0.00000000e+00    
           3.95735733e-05     3.23535169e-05     0.00000000e+00    
           3.94416747e-05     3.25584733e-05     0.00000000e+00    
           3.92449474e-05     3.27766029e-05     0.00000000e+00    
           3.89946326e-05     3.29855357e-05     0.00000000e+00    
           3.88375083e-05     3.30194816e-05     0.00000000e+00    
           3.87283981e-05     3.28170863e-05     0.00000000e+00    
           3.85884778e-05     3.25546280e-05     0.00000000e+00    
           3.84412087e-05     3.23109016e-05     0.00000000e+00    
           3.83147781e-05     3.20920408e-05     0.00000000e+00    
           3.80654383e-05     3.15965881e-05     0.00000000e+00    
           3.79706507e-05     3.13320743e-05     0.00000000e+00    
           3.79316552e-05     3.10881369e-05     0.00000000e+00    
           3.79833145e-05     3.09087991e-05     0.00000000e+00    
           3.81892642e-05     3.07505616e-05     0.00000000e+00    
           3.85245039e-05     3.06003603e-05     0.00000000e+00    
           3.89309971e-05     3.03913694e-05     0.00000000e+00    
           3.95049537e-05     3.00531028e-05     0.00000000e+00    
           4.02366641e-05     2.96762919e-05     0.00000000e+00    
           4.01725847e-05     3.02184326e-05     0.00000000e+00    
           3.98504053e-05     3.08303352e-05     0.00000000e+00    
          -2.55651889e-06     3.13799064e-05     0.00000000e+00    
          -2.13094472e-06     3.15250327e-05     0.00000000e+00    
          -1.90358628e-06     3.16872429e-05     0.00000000e+00    
          -1.76476294e-06     3.19803330e-05     0.00000000e+00    
          -1.69728526e-06     3.23501954e-05     0.00000000e+00    
          -1.60491129e-06     3.26645531e-05     0.00000000e+00    
          -1.53596693e-06     3.29692048e-05     0.00000000e+00    
          -1.36884591e-06     3.34270007e-05     0.00000000e+00    
          -1.46065383e-06     3.35143377e-05     0.00000000e+00    
          -1.67956102e-06     3.35834302e-05     0.00000000e+00    
          -1.92395851e-06     3.36392441e-05     0.00000000e+00    
          -2.14501165e-06     3.37182682e-05     0.00000000e+00    
          -2.39602809e-06     3.38192476e-05     0.00000000e+00    
          -2.67848009e-06     3.39649159e-05     0.00000000e+00    
           4.68276121e-05     3.42268031e-05     0.00000000e+00    
           4.67990503e-05     3.38563914e-05     0.00000000e+00    
           4.67784193e-05     3.33021235e-05     0.00000000e+00    
           4.66700403e-05     3.28340830e-05     0.00000000e+00    
           4.64717486e-05     3.23388704e-05     0.00000000e+00    
           4.61196505e-05     3.17565064e-05     0.00000000e+00    
           4.56548769e-05     3.10452851e-05     0.00000000e+00    
           4.61838536e-05     3.09920797e-05     0.00000000e+00    
           6.45206410e-06     4.92041800e-05     0.00000000e+00    
           6.20123592e-06     4.88671794e-05     0.00000000e+00    
           6.03465332e-06     4.85838209e-05     0.00000000e+00    
           6.01724287e-06     4.83273434e-05     0.00000000e+00    
           6.10938923e-06     4.80494782e-05     0.00000000e+00    
           6.26952033e-06     4.77592002e-05     0.00000000e+00    
           6.49208869e-06     4.74524131e-05     0.00000000e+00    
           7.17116109e-06     4.67560276e-05     0.00000000e+00    
           7.52179221e-06     4.65064222e-05     0.00000000e+00    
           7.73059310e-06     4.65929334e-05     0.00000000e+00    
           7.90685408e-06     4.68791804e-05     0.00000000e+00    
           8.16065949e-06     4.71680942e-05     0.00000000e+00    
           8.37204425e-06     4.74267908e-05     0.00000000e+00    
           8.49956177e-06     4.77028370e-05     0.00000000e+00    
           8.57504710e-06    -1.50884750e-06     0.00000000e+00    
           8.57443865e-06    -1.09187999e-06     0.00000000e+00    
           8.49151911e-06    -7.31626130e-07     0.00000000e+00    
           8.27952226e-06    -3.82704826e-07     0.00000000e+00    
           7.98047768e-06     1.64868403e-08     0.00000000e+00    
           7.65281857e-06     3.88217842e-07     0.00000000e+00    
           7.43195960e-06     4.07557508e-07     0.00000000e+00    
           7.23392714e-06     1.22484010e-07     0.00000000e+00    
           6.98649455e-06    -1.88300490e-07     0.00000000e+00    
           1.78755381e-05     4.52970562e-05     0.00000000e+00    
           1.74685847e-05     4.51648739e-05     0.00000000e+00    
           1.71291504e-05     4.49579384e-05     0.00000000e+00    
           1.68401457e-05     4.46157646e-05     0.00000000e+00    
           1.65097154e-05     4.40889053e-05     0.00000000e+00    
           1.62582401e-05     4.35523070e-05     0.00000000e+00    
           1.63453369e-05     4.32882334e-05     0.00000000e+00    
           1.67201360e-05     4.32749875e-05     0.00000000e+00    
           1.76378071e-05     4.31569097e-05     0.00000000e+00    
           1.81121086e-05     4.30564505e-05     0.00000000e+00    
           1.86484285e-05     4.29942957e-05     0.00000000e+00    
           1.92070056e-05     4.29746688e-05     0.00000000e+00    
           1.96791534e-05     4.29739521e-05     0.00000000e+00    
           1.99390815e-05     4.30689906e-05     0.00000000e+00    
           1.99781534e-05     4.32736415e-05     0.00000000e+00    
           1.99118931e-05     4.36089977e-05     0.00000000e+00    
           1.97119025e-05    -5.66297194e-06     0.00000000e+00    
           1.95375469e-05    -5.33187767e-06     0.00000000e+00    
           1.93075721e-05    -5.03975116e-06     0.00000000e+00    
           1.90146893e-05    -4.80364679e-06     0.00000000e+00    
           1.86936450e-05    -4.66245547e-06     0.00000000e+00    
           4.87830039e-05     9.84758481e-06     0.00000000e+00    
           4.86938079e-05     1.01246333e-05     0.00000000e+00    
           4.82752475e-05     1.03930970e-05     0.00000000e+00    
           4.78318725e-05     1.07815313e-05     0.00000000e+00    
           4.73777473e-05     1.12556882e-05     0.00000000e+00    
           4.68956459e-05     1.17790960e-05     0.00000000e+00    
           4.63679207e-05     1.23783757e-05     0.00000000e+00    
           4.60142364e-05     1.26328387e-05     0.00000000e+00    
           4.59815565e-05     1.23400523e-05     0.00000000e+00    
           4.60012525e-05     1.18418975e-05     0.00000000e+00    
           4.59617149e-05     1.14391351e-05     0.00000000e+00    
           4.58413670e-05     1.07095011e-05     0.00000000e+00    
           4.57971000e-05     1.03373968e-05     0.00000000e+00    
           4.57744209e-05     9.97448569e-06     0.00000000e+00    
           4.58061004e-05     9.59551107e-06     0.00000000e+00    
           4.59070689e-05     9.20320144e-06     0.00000000e+00    
           4.60431729e-05     8.83295797e-06     0.00000000e+00    
           4.62134849e-05     8.66672781e-06     0.00000000e+00    
           4.64333752e-05     8.69881751e-06     0.00000000e+00    
           4.67513746e-05     8.83849589e-06     0.00000000e+00    
           4.71262356e-05     8.99399038e-06     0.00000000e+00    
           4.76016394e-05     9.19647482e-06     0.00000000e+00    
           4.64231089e-05     4.36744522e-05     0.00000000e+00    
           4.62127355e-05     4.40557342e-05     0.00000000e+00    
           4.59699695e-05     4.44842699e-05     0.00000000e+00    
           4.57350106e-05     4.47713319e-05     0.00000000e+00    
           4.55138943e-05     4.48067804e-05     0.00000000e+00    
           4.51760388e-05     4.46248268e-05     0.00000000e+00    
           4.47885177e-05     4.42919809e-05     0.00000000e+00    
           4.43983918e-05     4.39946889e-05     0.00000000e+00    
           4.40633230e-05     4.37317285e-05     0.00000000e+00    
           4.40687800e-05     4.31503940e-05     0.00000000e+00    
           4.41327065e-05     4.28292369e-05     0.00000000e+00    
           4.42088312e-05     4.25487233e-05     0.00000000e+00    
           4.43336467e-05     4.23690144e-05     0.00000000e+00    
           4.44782490e-05     4.22004123e-05     0.00000000e+00    
           4.46957529e-05     4.19526732e-05     0.00000000e+00    
           4.49752442e-05     4.15914292e-05     0.00000000e+00    
           4.53186440e-05     4.10900975e-05     0.00000000e+00    
           4.56281268e-05     4.09481290e-05     0.00000000e+00    
          -4.04200910e-06     4.16962721e-05     0.00000000e+00    
          -3.84691566e-06     4.20793440e-05     0.00000000e+00    
          -3.63164304e-06     4.24450591e-05     0.00000000e+00    
          -3.45982357e-06     4.28056701e-05     0.00000000e+00    
          -3.37582219e-06     4.30796499e-05     0.00000000e+00    
           1.13636097e-05     3.92018665e-05     0.00000000e+00    
           1.16138444e-05     3.96314172e-05     0.00000000e+00    
           1.18991584e-05     4.01221005e-05     0.00000000e+00    
           1.19534316e-05     4.04982929e-05     0.00000000e+00    
           1.16583587e-05     4.05925311e-05     0.00000000e+00    
           1.11629879e-05     4.06598847e-05     0.00000000e+00    
           1.07199694e-05     4.08185551e-05     0.00000000e+00    
           1.02871536e-05     4.10317043e-05     0.00000000e+00    
           9.99179520e-06     4.10091197e-05     0.00000000e+00    
           9.84612234e-06     4.07140724e-05     0.00000000e+00    
           9.63605999e-06     4.02953665e-05     0.00000000e+00    
           9.41763938e-06     3.98533484e-05     0.00000000e+00    
           9.00317355e-06     3.91441135e-05     0.00000000e+00    
           9.04139324e-06     3.89230991e-05     0.00000000e+00    
           9.24708547e-06     3.87413929e-05     0.00000000e+00    
           9.52641130e-06     3.84925515e-05     0.00000000e+00    
           9.83600421e-06     3.82076869e-05     0.00000000e+00    
           1.01778996e-05     3.78644545e-05     0.00000000e+00    
           1.04178935e-05     3.76051539e-05     0.00000000e+00    
           1.05180961e-05     3.76339485e-05     0.00000000e+00    
           1.06148973e-05     3.78918376e-05     0.00000000e+00    
           1.07225978e-05     3.81834398e-05     0.00000000e+00    
           1.08575787e-05     3.84253653e-05     0.00000000e+00    
           1.10212150e-05     3.86411593e-05     0.00000000e+00    
           3.60944723e-05     4.31644148e-05     0.00000000e+00    
           3.56469209e-05     4.33083951e-05     0.00000000e+00    
           3.52208881e-05     4.33194255e-05     0.00000000e+00    
           3.48256144e-05     4.31862245e-05     0.00000000e+00    
           3.44512919e-05     4.29642059e-05     0.00000000e+00    
           3.41392952e-05     4.26870138e-05     0.00000000e+00    
           3.38782484e-05     4.23723541e-05     0.00000000e+00    
           3.36753001e-05     4.20335782e-05     0.00000000e+00    
           3.35113109e-05     4.17250776e-05     0.00000000e+00    
           3.34738361e-05     4.14816604e-05     0.00000000e+00    
           3.42315361e-05     4.11956025e-05     0.00000000e+00    
           3.47846035e-05     4.10720677e-05     0.00000000e+00    
           3.53103969e-05     4.09969325e-05     0.00000000e+00    
           3.57932513e-05     4.09356435e-05     0.00000000e+00    
           3.61938801e-05     4.09160311e-05     0.00000000e+00    
           3.64607040e-05     4.09611712e-05     0.00000000e+00    
           3.65932428e-05     4.12752306e-05     0.00000000e+00    
           3.66993081e-05     4.17899610e-05     0.00000000e+00    
           3.67422144e-05     4.23170495e-05     0.00000000e+00    
           3.67514258e-05     4.27059713e-05     0.00000000e+00    
           2.59711906e-05     1.83319880e-05     0.00000000e+00    
           2.55044943e-05     1.83512911e-05     0.00000000e+00    
           2.47909320e-05     1.83373286e-05     0.00000000e+00    
           2.40426889e-05     1.82822514e-05     0.00000000e+00    
           2.35058560e-05     1.83063003e-05     0.00000000e+00    
           2.31528284e-05     1.81454470e-05     0.00000000e+00    
           2.29524430e-05     1.74218185e-05     0.00000000e+00    
           2.28714980e-05     1.66974623e-05     0.00000000e+00    
           2.28412846e-05     1.61630596e-05     0.00000000e+00    
           2.28488625e-05     1.56908463e-05     0.00000000e+00    
           2.28029512e-05     1.53083311e-05     0.00000000e+00    
           2.27816199e-05     1.47817036e-05     0.00000000e+00    
           2.33118590e-05     1.48406107e-05     0.00000000e+00    
           2.40520640e-05     1.50340147e-05     0.00000000e+00    
           2.46312593e-05     1.52946268e-05     0.00000000e+00    
           2.50794892e-05     1.55911894e-05     0.00000000e+00    
           2.53946328e-05     1.59474585e-05     0.00000000e+00    
           2.56324529e-05     1.63399563e-05     0.00000000e+00    
           2.57773263e-05     1.67401704e-05     0.00000000e+00    
           2.58725977e-05     1.71492738e-05     0.00000000e+00    
           2.59207245e-05     1.75172390e-05     0.00000000e+00    
           2.59549961e-05     1.78609062e-05     0.00000000e+00    
           4.49381514e-06     8.91127820e-06     0.00000000e+00    
           4.78904622e-06     8.50077413e-06     0.00000000e+00    
           5.10326618e-06     8.05097170e-06     0.00000000e+00    
           5.44122167e-06     7.53288850e-06     0.00000000e+00    
           5.79294010e-06     7.16454633e-06     0.00000000e+00    
           6.08826349e-06     7.15359511e-06     0.00000000e+00    
           6.46259559e-06     7.39196184e-06     0.00000000e+00    
           6.92619051e-06     7.67902839e-06     0.00000000e+00    
           7.52827691e-06     7.90725426e-06     0.00000000e+00    
           7.92257833e-06     8.43729322e-06     0.00000000e+00    
           7.62066384e-06     8.74131274e-06     0.00000000e+00    
           7.42760449e-06     9.13626991e-06     0.00000000e+00    
           7.28493978e-06     9.56454005e-06     0.00000000e+00    
           7.19544278e-06     9.95513437e-06     0.00000000e+00    
           7.10157565e-06     1.01916185e-05     0.00000000e+00    
           6.93462016e-06     1.02320409e-05     0.00000000e+00    
           6.67976519e-06     1.02326621e-05     0.00000000e+00    
           6.36747791e-06     1.02287440e-05     0.00000000e+00    
           5.55490187e-05     1.01623236e-05     0.00000000e+00    
           5.49209362e-05     1.00053421e-05     0.00000000e+00    
           5.42393427e-05     9.76544652e-06     0.00000000e+00    
           5.38819077e-05     9.45930788e-06     0.00000000e+00    
           7.02823172e-06     2.55482719e-05     0.00000000e+00    
           6.59891157e-06     2.56042404e-05     0.00000000e+00    
           5.91057506e-06     2.55692757e-05     0.00000000e+00    
           5.29198496e-06     2.54864281e-05     0.00000000e+00    
           4.75133811e-06     2.53828148e-05     0.00000000e+00    
           4.31091712e-06     2.52440277e-05     0.00000000e+00    
           4.03245804e-06     2.50604498e-05     0.00000000e+00    
           3.92152288e-06     2.47244607e-05     0.00000000e+00    
           3.89514253e-06     2.42773440e-05     0.00000000e+00    
           3.94132212e-06     2.38998564e-05     0.00000000e+00    
           4.15554905e-06     2.36118376e-05     0.00000000e+00    
           5.03262299e-06     2.30785135e-05     0.00000000e+00    
           5.48442040e-06     2.28507997e-05     0.00000000e+00    
           5.90582704e-06     2.26816810e-05     0.00000000e+00    
           6.24302902e-06     2.25663844e-05     0.00000000e+00    
           6.50637867e-06     2.25286494e-05     0.00000000e+00    
           6.67615905e-06     2.27298897e-05     0.00000000e+00    
           6.79922096e-06     2.31438644e-05     0.00000000e+00    
           6.89972376e-06     2.36062278e-05     0.00000000e+00    
           6.94003438e-06     2.40555692e-05     0.00000000e+00    