<?xml version="1.0"?>
<VTKFile type="UnstructuredGrid" version="0.1">
  <UnstructuredGrid>
    <Piece NumberOfPoints="1034" NumberOfCells="1614">
      <Points>
        <DataArray type="Float32" NumberOfComponents="3">
           5.21582007e-01     5.11657000e-01     0.00000000e+00    
           5.07319987e-01     5.11657000e-01     0.00000000e+00    
           4.65243995e-01     5.17907977e-01     0.00000000e+00    
           4.65243995e-01     5.04921973e-01     0.00000000e+00    
           4.75246996e-01     5.11415005e-01     0.00000000e+00    
           5.33852994e-01     5.04921973e-01     0.00000000e+00    
           5.33852994e-01     5.17907977e-01     0.00000000e+00    
           4.83779997e-01     5.34618974e-01     0.00000000e+00    
           4.68984991e-01     5.34618974e-01     0.00000000e+00    
           4.76381987e-01     5.23841977e-01     0.00000000e+00    
           4.68984991e-01     4.66010004e-01     0.00000000e+00    
           4.83779997e-01     4.66010004e-01     0.00000000e+00    
           4.99920011e-01     5.34618974e-01     0.00000000e+00    
           4.89203990e-01     5.34618974e-01     0.00000000e+00    
           4.94562000e-01     5.22280991e-01     0.00000000e+00    
           4.89203990e-01     4.66010004e-01     0.00000000e+00    
           4.99920011e-01     4.66010004e-01     0.00000000e+00    
           5.32517016e-01     4.74112004e-01     0.00000000e+00    
           5.17961025e-01     4.74112004e-01     0.00000000e+00    
           5.33852994e-01     5.19801974e-01     0.00000000e+00    
           5.33852994e-01     5.29603004e-01     0.00000000e+00    
           5.19536972e-01     5.24702013e-01     0.00000000e+00    
           4.65243995e-01     5.29603004e-01     0.00000000e+00    
           4.65243995e-01     5.19801974e-01     0.00000000e+00    
           4.92487997e-01     5.17117977e-01     0.00000000e+00    
           4.76904988e-01     5.17117977e-01     0.00000000e+00    
           5.17996013e-01     5.27033985e-01     0.00000000e+00    
           5.04473984e-01     5.27033985e-01     0.00000000e+00    
           5.08446991e-01     4.83435005e-01     0.00000000e+00    
           4.94414002e-01     4.83435005e-01     0.00000000e+00    
           4.65243995e-01     4.83101994e-01     0.00000000e+00    
           4.65243995e-01     4.74415004e-01     0.00000000e+00    
           4.78336990e-01     4.78758007e-01     0.00000000e+00    
           5.33852994e-01     4.74415004e-01     0.00000000e+00    
           5.33852994e-01     4.83101994e-01     0.00000000e+00    
           4.80668008e-01     4.95810986e-01     0.00000000e+00    
           4.66084987e-01     4.95810986e-01     0.00000000e+00    
           4.93930012e-01     4.79214013e-01     0.00000000e+00    
           4.78967011e-01     4.79214013e-01     0.00000000e+00    
           5.09284973e-01     4.97658014e-01     0.00000000e+00    
           4.95503992e-01     4.97658014e-01     0.00000000e+00    
           5.33011973e-01     5.01751006e-01     0.00000000e+00    
           5.17829001e-01     5.01751006e-01     0.00000000e+00    
           4.95451003e-01     5.00564992e-01     0.00000000e+00    
           4.80922014e-01     5.00564992e-01     0.00000000e+00    
           5.25367022e-01     4.88312006e-01     0.00000000e+00    
           5.09521008e-01     4.88312006e-01     0.00000000e+00    
           4.65243995e-01     5.34618974e-01     0.00000000e+00    
           4.65243995e-01     4.66010004e-01     0.00000000e+00    
           5.33852994e-01     4.66010004e-01     0.00000000e+00    
           5.33852994e-01     5.34618974e-01     0.00000000e+00    
           5.21338999e-01     5.13502657e-01     0.00000000e+00    
           5.20626605e-01     5.15222490e-01     0.00000000e+00    
           5.19493401e-01     5.16699374e-01     0.00000000e+00    
           5.18016517e-01     5.17832637e-01     0.00000000e+00    
           5.16296625e-01     5.18545032e-01     0.00000000e+00    
           5.14451027e-01     5.18787980e-01     0.00000000e+00    
           5.12605369e-01     5.18545032e-01     0.00000000e+00    
           5.10885477e-01     5.17832637e-01     0.00000000e+00    
           5.09408593e-01     5.16699374e-01     0.00000000e+00    
           5.08275390e-01     5.15222490e-01     0.00000000e+00    
           5.07562995e-01     5.13502657e-01     0.00000000e+00    
           5.07562995e-01     5.09811342e-01     0.00000000e+00    
           5.08275390e-01     5.08091509e-01     0.00000000e+00    
           5.09408593e-01     5.06614625e-01     0.00000000e+00    
           5.10885477e-01     5.05481362e-01     0.00000000e+00    
           5.12605369e-01     5.04768968e-01     0.00000000e+00    
           5.14451027e-01     5.04526019e-01     0.00000000e+00    
           5.16296625e-01     5.04768968e-01     0.00000000e+00    
           5.18016517e-01     5.05481362e-01     0.00000000e+00    
           5.19493401e-01     5.06614625e-01     0.00000000e+00    
           5.20626605e-01     5.08091509e-01     0.00000000e+00    
           5.21338999e-01     5.09811342e-01     0.00000000e+00    
           4.66931671e-01     5.04409373e-01     0.00000000e+00    
           4.68693614e-01     5.04328012e-01     0.00000000e+00    
           4.70421344e-01     5.04682958e-01     0.00000000e+00    
           4.72008497e-01     5.05452335e-01     0.00000000e+00    
           4.73357379e-01     5.06588817e-01     0.00000000e+00    
           4.74384934e-01     5.08022368e-01     0.00000000e+00    
           4.75027919e-01     5.09664834e-01     0.00000000e+00    
           4.75028187e-01     5.13165236e-01     0.00000000e+00    
           4.74385172e-01     5.14807761e-01     0.00000000e+00    
           4.73357558e-01     5.16241372e-01     0.00000000e+00    
           4.72008646e-01     5.17377913e-01     0.00000000e+00    
           4.70421433e-01     5.18147290e-01     0.00000000e+00    
           4.68693614e-01     5.18502235e-01     0.00000000e+00    
           4.66931641e-01     5.18420875e-01     0.00000000e+00    
           5.32303810e-01     5.16964078e-01     0.00000000e+00    
           5.31043947e-01     5.15658796e-01     0.00000000e+00    
           5.30155540e-01     5.14077127e-01     0.00000000e+00    
           5.29696345e-01     5.12322068e-01     0.00000000e+00    
           5.29696345e-01     5.10507941e-01     0.00000000e+00    
           5.30155540e-01     5.08752882e-01     0.00000000e+00    
           5.31043947e-01     5.07171214e-01     0.00000000e+00    
           5.32303810e-01     5.05865932e-01     0.00000000e+00    
           4.68517244e-01     5.32760799e-01     0.00000000e+00    
           4.68509018e-01     5.30844629e-01     0.00000000e+00    
           4.68960851e-01     5.28982460e-01     0.00000000e+00    
           4.69846308e-01     5.27283132e-01     0.00000000e+00    
           4.71113682e-01     5.25845945e-01     0.00000000e+00    
           4.72688884e-01     5.24754822e-01     0.00000000e+00    
           4.74479854e-01     5.24073541e-01     0.00000000e+00    
           4.78284091e-01     5.24073601e-01     0.00000000e+00    
           4.80075032e-01     5.24754822e-01     0.00000000e+00    
           4.81650203e-01     5.25845885e-01     0.00000000e+00    
           4.82917547e-01     5.27283013e-01     0.00000000e+00    
           4.83803004e-01     5.28982282e-01     0.00000000e+00    
           4.84254897e-01     5.30844331e-01     0.00000000e+00    
           4.84246761e-01     5.32760441e-01     0.00000000e+00    
           4.82887864e-01     4.67691004e-01     0.00000000e+00    
           4.81620818e-01     4.69110936e-01     0.00000000e+00    
           4.80051905e-01     4.70188022e-01     0.00000000e+00    
           4.78271484e-01     4.70860153e-01     0.00000000e+00    
           4.76382166e-01     4.71088618e-01     0.00000000e+00    
           4.74492878e-01     4.70860243e-01     0.00000000e+00    
           4.72712427e-01     4.70188200e-01     0.00000000e+00    
           4.71143454e-01     4.69111174e-01     0.00000000e+00    
           4.69876349e-01     4.67691302e-01     0.00000000e+00    
           4.88103986e-01     5.33086061e-01     0.00000000e+00    
           4.87431526e-01     5.31323195e-01     0.00000000e+00    
           4.87231195e-01     5.29447019e-01     0.00000000e+00    
           4.87516224e-01     5.27581930e-01     0.00000000e+00    
           4.88267750e-01     5.25851250e-01     0.00000000e+00    
           4.89436030e-01     5.24369657e-01     0.00000000e+00    
           4.90943670e-01     5.23235261e-01     0.00000000e+00    
           4.92690891e-01     5.22523046e-01     0.00000000e+00    
           4.96432930e-01     5.22523701e-01     0.00000000e+00    
           4.98180002e-01     5.23235798e-01     0.00000000e+00    
           4.99687493e-01     5.24370134e-01     0.00000000e+00    
           5.00855684e-01     5.25851607e-01     0.00000000e+00    
           5.01607120e-01     5.27582109e-01     0.00000000e+00    
           5.01892149e-01     5.29447079e-01     0.00000000e+00    
           5.01691818e-01     5.31323016e-01     0.00000000e+00    
           5.01019418e-01     5.33085763e-01     0.00000000e+00    
           4.98371124e-01     4.67269689e-01     0.00000000e+00    
           4.96539861e-01     4.68064904e-01     0.00000000e+00    
           4.94562000e-01     4.68336672e-01     0.00000000e+00    
           4.92584139e-01     4.68064904e-01     0.00000000e+00    
           4.90752876e-01     4.67269689e-01     0.00000000e+00    
           5.32269001e-01     4.75995690e-01     0.00000000e+00    
           5.31541944e-01     4.77750987e-01     0.00000000e+00    
           5.30385315e-01     4.79258329e-01     0.00000000e+00    
           5.28877974e-01     4.80414927e-01     0.00000000e+00    
[...]
      <PointData>
        <DataArray type="Float32" Name="Displacement" NumberOfComponents="3">
           2.56923988e-04     2.07708988e-04     0.00000000e+00    
           2.48454395e-04     2.08367841e-04     0.00000000e+00    
          -1.61298703e-05     2.24374540e-04     0.00000000e+00    
          -1.66920636e-05     2.10693775e-04     0.00000000e+00    
          -8.00908492e-06     2.19739348e-04     0.00000000e+00    
           3.08307935e-04     2.10693775e-04     0.00000000e+00    
           3.08870134e-04     2.24374540e-04     0.00000000e+00    
           5.41158770e-05     3.14574456e-04     0.00000000e+00    
           4.45664955e-05     3.22760839e-04     0.00000000e+00    
           4.41918055e-05     3.10224830e-04     0.00000000e+00    
           4.45664955e-05    -2.23915140e-06     0.00000000e+00    
           5.41158770e-05    -1.04255396e-05     0.00000000e+00    
           1.25659717e-04     2.88170530e-04     0.00000000e+00    
           1.17632022e-04     2.96518294e-04     0.00000000e+00    
           1.10960107e-04     2.84811598e-04     0.00000000e+00    
           1.17632022e-04    -2.84817161e-05     0.00000000e+00    
           1.25659717e-04    -3.68294604e-05     0.00000000e+00    
           3.10643809e-04     6.04267734e-05     0.00000000e+00    
           2.98716535e-04     6.73494942e-05     0.00000000e+00    
           2.97524588e-04     2.72201956e-04     0.00000000e+00    
           3.01109074e-04     2.82051857e-04     0.00000000e+00    
           2.87803094e-04     2.82063149e-04     0.00000000e+00    
          -2.38909215e-05     2.82051857e-04     0.00000000e+00    
          -2.74754002e-05     2.72201956e-04     0.00000000e+00    
           7.16858849e-05     2.55682389e-04     0.00000000e+00    
           6.14289966e-05     2.61074340e-04     0.00000000e+00    
           2.35740255e-04     2.79045955e-04     0.00000000e+00    
           2.22018338e-04     2.69623240e-04     0.00000000e+00    
           1.63172881e-04     1.16057585e-04     0.00000000e+00    
           1.47879051e-04     1.00835961e-04     0.00000000e+00    
           3.72412069e-05     6.52554445e-05     0.00000000e+00    
           2.92405239e-05     5.97669750e-05     0.00000000e+00    
           4.68940852e-05     5.52393030e-05     0.00000000e+00    
           3.54240532e-04     5.97669750e-05     0.00000000e+00    
           3.62241204e-04     6.52554445e-05     0.00000000e+00    
           4.12761219e-05     1.65957856e-04     0.00000000e+00    
           2.91533088e-05     1.54989160e-04     0.00000000e+00    
           9.72262715e-05     7.34675632e-05     0.00000000e+00    
           8.00469570e-05     6.07144575e-05     0.00000000e+00    
           1.55695423e-04     1.38668780e-04     0.00000000e+00    
           1.41225726e-04     1.49060143e-04     0.00000000e+00    
           2.84035748e-04     1.83743527e-04     0.00000000e+00    
           2.71923636e-04     1.80067291e-04     0.00000000e+00    
           1.00518897e-04     1.70307074e-04     0.00000000e+00    
           8.43091620e-05     1.80116884e-04     0.00000000e+00    
           2.52697879e-04     1.33127818e-04     0.00000000e+00    
           2.39013796e-04     1.22202691e-04     0.00000000e+00    
           0.00000000e+00     3.25000001e-04     0.00000000e+00    
           0.00000000e+00     0.00000000e+00     0.00000000e+00    
           3.25000001e-04     0.00000000e+00     0.00000000e+00    
           3.25000001e-04     3.25000001e-04     0.00000000e+00    
           2.56330590e-04     2.09809092e-04     0.00000000e+00    
           2.56011059e-04     2.11383478e-04     0.00000000e+00    
           2.55487452e-04     2.12698549e-04     0.00000000e+00    
           2.54614977e-04     2.13513558e-04     0.00000000e+00    
           2.53444799e-04     2.14299900e-04     0.00000000e+00    
           2.52109108e-04     2.14923013e-04     0.00000000e+00    
           2.51313060e-04     2.14825923e-04     0.00000000e+00    
           2.50718876e-04     2.13794759e-04     0.00000000e+00    
           2.49998237e-04     2.12387225e-04     0.00000000e+00    
           2.49313947e-04     2.10970087e-04     0.00000000e+00    
           2.48832919e-04     2.09673861e-04     0.00000000e+00    
           2.48181837e-04     2.06930257e-04     0.00000000e+00    
           2.48099415e-04     2.05641147e-04     0.00000000e+00    
           2.48267665e-04     2.04558979e-04     0.00000000e+00    
           2.48785713e-04     2.03860007e-04     0.00000000e+00    
           2.49971490e-04     2.03312797e-04     0.00000000e+00    
           2.51759891e-04     2.02879659e-04     0.00000000e+00    
           2.53887411e-04     2.02394483e-04     0.00000000e+00    
           2.56557192e-04     2.01478353e-04     0.00000000e+00    
           2.58537708e-04     2.01256305e-04     0.00000000e+00    
           2.58817163e-04     2.02837240e-04     0.00000000e+00    
           2.57599488e-04     2.05379300e-04     0.00000000e+00    
          -1.39111680e-05     2.10748884e-04     0.00000000e+00    
          -1.17775699e-05     2.11237726e-04     0.00000000e+00    
          -1.06149755e-05     2.11904306e-04     0.00000000e+00    
          -9.79858760e-06     2.13200285e-04     0.00000000e+00    
          -9.28163445e-06     2.15004577e-04     0.00000000e+00    
          -8.74279431e-06     2.16661268e-04     0.00000000e+00    
          -8.39356471e-06     2.18326983e-04     0.00000000e+00    
          -7.90342165e-06     2.20754140e-04     0.00000000e+00    
          -8.35543415e-06     2.21294118e-04     0.00000000e+00    
          -9.37558343e-06     2.21789873e-04     0.00000000e+00    
          -1.05999125e-05     2.22203715e-04     0.00000000e+00    
          -1.18053113e-05     2.22647868e-04     0.00000000e+00    
          -1.32098357e-05     2.23108815e-04     0.00000000e+00    
          -1.47523788e-05     2.23611234e-04     0.00000000e+00    
           3.08013317e-04     2.24139352e-04     0.00000000e+00    
           3.07856302e-04     2.22635339e-04     0.00000000e+00    
           3.07646347e-04     2.20114147e-04     0.00000000e+00    
           3.07196897e-04     2.17846784e-04     0.00000000e+00    
           3.06566886e-04     2.15419001e-04     0.00000000e+00    
           3.05473921e-04     2.12987725e-04     0.00000000e+00    
           3.04792309e-04     2.11213483e-04     0.00000000e+00    
           3.06035159e-04     2.10321276e-04     0.00000000e+00    
           4.29749816e-05     3.21130326e-04     0.00000000e+00    
           4.16395451e-05     3.19440267e-04     0.00000000e+00    
           4.07104126e-05     3.18012288e-04     0.00000000e+00    
           4.04761922e-05     3.16631951e-04     0.00000000e+00    
           4.08410815e-05     3.15106037e-04     0.00000000e+00    
           4.16172625e-05     3.13498516e-04     0.00000000e+00    
           4.27671221e-05     3.11852258e-04     0.00000000e+00    
           4.62383323e-05     3.08372575e-04     0.00000000e+00    
           4.79181799e-05     3.07175069e-04     0.00000000e+00    
           4.91296305e-05     3.07323353e-04     0.00000000e+00    
           5.02859293e-05     3.08432995e-04     0.00000000e+00    
           5.17694862e-05     3.09805095e-04     0.00000000e+00    
           5.29756580e-05     3.11109674e-04     0.00000000e+00    
           5.37617852e-05     3.12547578e-04     0.00000000e+00    
           5.43077731e-05    -8.30007593e-06     0.00000000e+00    
           5.43091628e-05    -6.12778240e-06     0.00000000e+00    
           5.39088287e-05    -4.22569747e-06     0.00000000e+00    
           5.28516903e-05    -2.41553721e-06     0.00000000e+00    
           5.13839186e-05    -4.90253967e-07     0.00000000e+00    
           4.98706067e-05     1.20196307e-06     0.00000000e+00    
           4.87138859e-05     1.49835421e-06     0.00000000e+00    
           4.75165434e-05     4.84463897e-07     0.00000000e+00    
           4.60181109e-05    -8.76127842e-07     0.00000000e+00    
           1.15345516e-04     2.96223996e-04     0.00000000e+00    
           1.13137714e-04     2.95562379e-04     0.00000000e+00    
           1.11268448e-04     2.94475612e-04     0.00000000e+00    
           1.09704917e-04     2.92651181e-04     0.00000000e+00    
           1.08147164e-04     2.89967604e-04     0.00000000e+00    
           1.07055843e-04     2.87481816e-04     0.00000000e+00    
           1.07297863e-04     2.85952206e-04     0.00000000e+00    
           1.08742279e-04     2.85365008e-04     0.00000000e+00    
           1.13306196e-04     2.84034671e-04     0.00000000e+00    
           1.15799026e-04     2.83374626e-04     0.00000000e+00    
           1.18523698e-04     2.83008994e-04     0.00000000e+00    
           1.21261895e-04     2.82870984e-04     0.00000000e+00    
           1.23560065e-04     2.82794761e-04     0.00000000e+00    
           1.25126739e-04     2.83210364e-04     0.00000000e+00    
           1.25776380e-04     2.84251699e-04     0.00000000e+00    
           1.25824619e-04     2.86085036e-04     0.00000000e+00    
           1.25136881e-04    -3.47386303e-05     0.00000000e+00    
           1.24279482e-04    -3.27899725e-05     0.00000000e+00    
           1.23083460e-04    -3.10649375e-05     0.00000000e+00    
           1.21521211e-04    -2.96642993e-05     0.00000000e+00    
           1.19776865e-04    -2.87603580e-05     0.00000000e+00    
           3.12281074e-04     6.19622224e-05     0.00000000e+00    
           3.12178192e-04     6.32346273e-05     0.00000000e+00    
           3.10702977e-04     6.45275650e-05     0.00000000e+00    
           3.08596180e-04     6.64417239e-05     0.00000000e+00    
           3.06355039e-04     6.85360865e-05     0.00000000e+00    
           3.04082903e-04     7.05727361e-05     0.00000000e+00    
           3.02071887e-04     7.27147271e-05     0.00000000e+00    
           3.00662970e-04     7.35546346e-05     0.00000000e+00    
           3.00058193e-04     7.30003012e-05     0.00000000e+00    
           2.99629930e-04     7.11409230e-05     0.00000000e+00    
           2.99134292e-04     6.92777467e-05     0.00000000e+00    
           2.98321916e-04     6.55605763e-05     0.00000000e+00    
           2.98171712e-04     6.36612167e-05     0.00000000e+00    
           2.98191357e-04     6.18747581e-05     0.00000000e+00    
           2.98500876e-04     6.00813910e-05     0.00000000e+00    
           2.99134117e-04     5.83334549e-05     0.00000000e+00    
           2.99884094e-04     5.67729112e-05     0.00000000e+00    
           3.00792832e-04     5.59887667e-05     0.00000000e+00    
           3.01995169e-04     5.60251938e-05     0.00000000e+00    
           3.03692039e-04     5.66568451e-05     0.00000000e+00    
           3.05612193e-04     5.75520025e-05     0.00000000e+00    
           3.07849608e-04     5.87589966e-05     0.00000000e+00    
           3.00219952e-04     2.83600588e-04     0.00000000e+00    
           2.99058040e-04     2.85292481e-04     0.00000000e+00    
           2.97754974e-04     2.87075003e-04     0.00000000e+00    
           2.96576938e-04     2.88168085e-04     0.00000000e+00    
           2.95461359e-04     2.88331328e-04     0.00000000e+00    
           2.93738674e-04     2.87600618e-04     0.00000000e+00    
           2.91761447e-04     2.86064431e-04     0.00000000e+00    
           2.89846532e-04     2.84618611e-04     0.00000000e+00    
           2.88275623e-04     2.83338508e-04     0.00000000e+00    
           2.88149458e-04     2.80474225e-04     0.00000000e+00    
           2.88532756e-04     2.78817140e-04     0.00000000e+00    
           2.89034448e-04     2.77398009e-04     0.00000000e+00    
           2.89802934e-04     2.76453036e-04     0.00000000e+00    
           2.90732074e-04     2.75610917e-04     0.00000000e+00    
           2.92092329e-04     2.74525752e-04     0.00000000e+00    
           2.93691439e-04     2.73139449e-04     0.00000000e+00    
           2.95347127e-04     2.71311088e-04     0.00000000e+00    
           2.96742801e-04     2.70952354e-04     0.00000000e+00    
          -2.65622530e-05     2.74138933e-04     0.00000000e+00    
          -2.56210587e-05     2.76011910e-04     0.00000000e+00    
          -2.46595500e-05     2.77797517e-04     0.00000000e+00    
          -2.39487999e-05     2.79521308e-04     0.00000000e+00    
          -2.36317665e-05     2.80805689e-04     0.00000000e+00    
           7.27739825e-05     2.57432257e-04     0.00000000e+00    
           7.40131291e-05     2.59758061e-04     0.00000000e+00    
           7.52663691e-05     2.62110989e-04     0.00000000e+00    
           7.55262954e-05     2.63972383e-04     0.00000000e+00    
           7.43991841e-05     2.64897448e-04     0.00000000e+00    
           7.21177130e-05     2.65657465e-04     0.00000000e+00    
           6.98979347e-05     2.66672898e-04     0.00000000e+00    
           6.77994321e-05     2.67755560e-04     0.00000000e+00    
           6.62649909e-05     2.67818483e-04     0.00000000e+00    
           6.53070601e-05     2.66768242e-04     0.00000000e+00    
           6.39827922e-05     2.64944771e-04     0.00000000e+00    
           6.26955007e-05     2.62833928e-04     0.00000000e+00    
           6.04258094e-05     2.59387132e-04     0.00000000e+00    
           6.02914988e-05     2.58165208e-04     0.00000000e+00    
           6.09019262e-05     2.56995612e-04     0.00000000e+00    
           6.20125938e-05     2.55462190e-04     0.00000000e+00    
           6.33652890e-05     2.53816019e-04     0.00000000e+00    
           6.49316280e-05     2.52034370e-04     0.00000000e+00    
           6.59844227e-05     2.50708661e-04     0.00000000e+00    
           6.65857660e-05     2.50418438e-04     0.00000000e+00    
           6.74091498e-05     2.51112593e-04     0.00000000e+00    
           6.83762264e-05     2.52201949e-04     0.00000000e+00    
           6.94602786e-05     2.53269100e-04     0.00000000e+00    
           7.06147475e-05     2.54362501e-04     0.00000000e+00    
           2.33463375e-04     2.80055247e-04     0.00000000e+00    
           2.31050057e-04     2.80756300e-04     0.00000000e+00    
           2.28745717e-04     2.80751759e-04     0.00000000e+00    
           2.26619784e-04     2.80003704e-04     0.00000000e+00    
           2.24636373e-04     2.78777123e-04     0.00000000e+00    
           2.23004521e-04     2.77223007e-04     0.00000000e+00    
           2.21709939e-04     2.75444734e-04     0.00000000e+00    
           2.20817863e-04     2.73528654e-04     0.00000000e+00    
           2.20299800e-04     2.71778466e-04     0.00000000e+00    
           2.20551752e-04     2.70470744e-04     0.00000000e+00    
           2.24431918e-04     2.69076729e-04     0.00000000e+00    
           2.27151526e-04     2.68436357e-04     0.00000000e+00    
           2.29871337e-04     2.68099218e-04     0.00000000e+00    
           2.32461680e-04     2.67922354e-04     0.00000000e+00    
           2.34569947e-04     2.68137432e-04     0.00000000e+00    
           2.35888001e-04     2.68788339e-04     0.00000000e+00    
           2.36550637e-04     2.70491146e-04     0.00000000e+00    
           2.37111890e-04     2.73075741e-04     0.00000000e+00    
           2.37251719e-04     2.75760394e-04     0.00000000e+00    
           2.37050335e-04     2.77763029e-04     0.00000000e+00    
           1.62403128e-04     1.17087453e-04     0.00000000e+00    
           1.60302719e-04     1.17212359e-04     0.00000000e+00    
           1.57296803e-04     1.17254669e-04     0.00000000e+00    
           1.53940549e-04     1.17135321e-04     0.00000000e+00    
           1.51500397e-04     1.17202595e-04     0.00000000e+00    
           1.49881424e-04     1.16150586e-04     0.00000000e+00    
           1.48785868e-04     1.13074348e-04     0.00000000e+00    
           1.48138366e-04     1.09728462e-04     0.00000000e+00    
           1.47798972e-04     1.07048494e-04     0.00000000e+00    
           1.47810744e-04     1.04562627e-04     0.00000000e+00    
           1.47804560e-04     1.02497637e-04     0.00000000e+00    
           1.48770821e-04     1.00214143e-04     0.00000000e+00    
           1.50984109e-04     1.00338817e-04     0.00000000e+00    
           1.54140827e-04     1.01018282e-04     0.00000000e+00    
           1.56915921e-04     1.02062913e-04     0.00000000e+00    
           1.59160889e-04     1.03367704e-04     0.00000000e+00    
           1.60816780e-04     1.05039901e-04     0.00000000e+00    
           1.62063065e-04     1.06966247e-04     0.00000000e+00    
           1.62831813e-04     1.08994536e-04     0.00000000e+00    
           1.63289762e-04     1.11114779e-04     0.00000000e+00    
           1.63402437e-04     1.13069647e-04     0.00000000e+00    
           1.63298915e-04     1.14872193e-04     0.00000000e+00    
           3.07359187e-05     5.83488727e-05     0.00000000e+00    
           3.21779480e-05     5.63366484e-05     0.00000000e+00    
           3.37378697e-05     5.42466660e-05     0.00000000e+00    
           3.53553987e-05     5.20059693e-05     0.00000000e+00    
           3.69747031e-05     5.04495110e-05     0.00000000e+00    
           3.84134910e-05     5.02682742e-05     0.00000000e+00    
           4.02961014e-05     5.13179402e-05     0.00000000e+00    
           4.25022336e-05     5.28332857e-05     0.00000000e+00    
           4.50749030e-05     5.40314177e-05     0.00000000e+00    
           4.69978986e-05     5.65893824e-05     0.00000000e+00    
           4.58350914e-05     5.82257453e-05     0.00000000e+00    
           4.48848114e-05     6.02593427e-05     0.00000000e+00    
           4.40735566e-05     6.23429078e-05     0.00000000e+00    
           4.35616894e-05     6.41155129e-05     0.00000000e+00    
           4.30492873e-05     6.52641102e-05     0.00000000e+00    
           4.21460900e-05     6.56172342e-05     0.00000000e+00    
           4.07854859e-05     6.56488846e-05     0.00000000e+00    
           3.91282738e-05     6.55295153e-05     0.00000000e+00    
           3.60171252e-04     6.46805274e-05     0.00000000e+00    
           3.57472978e-04     6.35685719e-05     0.00000000e+00    
           3.54935066e-04     6.23600863e-05     0.00000000e+00    
           3.53737647e-04     6.10232091e-05     0.00000000e+00    
           4.07684420e-05     1.67128252e-04     0.00000000e+00    
           3.86530774e-05     1.67364313e-04     0.00000000e+00    
           3.55182856e-05     1.67230552e-04     0.00000000e+00    
           3.25097135e-05     1.66849786e-04     0.00000000e+00    
           2.98273571e-05     1.66274753e-04     0.00000000e+00    
           2.76843348e-05     1.65433798e-04     0.00000000e+00    
           2.63946677e-05     1.64325626e-04     0.00000000e+00    
           2.58638229e-05     1.62572454e-04     0.00000000e+00    
           2.57273896e-05     1.60226671e-04     0.00000000e+00    
           2.60617107e-05     1.58152310e-04     0.00000000e+00    
           2.72255547e-05     1.56518625e-04     0.00000000e+00    
           3.14661411e-05     1.53662841e-04     0.00000000e+00    
           3.37770980e-05     1.52479435e-04     0.00000000e+00    
           3.60328922e-05     1.51668224e-04     0.00000000e+00    
           3.78977275e-05     1.51314729e-04     0.00000000e+00    
           3.93089322e-05     1.51493528e-04     0.00000000e+00    
           4.02158585e-05     1.52669993e-04     0.00000000e+00    
           4.08434171e-05     1.54709967e-04     0.00000000e+00    
           4.13804664e-05     1.57040427e-04     0.00000000e+00    
           4.15836694e-05     1.59380637e-04     0.00000000e+00    