<?xml version="1.0"?>
<VTKFile type="UnstructuredGrid" version="0.1">
  <UnstructuredGrid>
    <Piece NumberOfPoints="1034" NumberOfCells="1614">
      <Points>
        <DataArray type="Float32" NumberOfComponents="3">
           5.21582007e-01     5.11657000e-01     0.00000000e+00    
           5.07319987e-01     5.11657000e-01     0.00000000e+00    
           4.65243995e-01     5.17907977e-01     0.00000000e+00    
           4.65243995e-01     5.04921973e-01     0.00000000e+00    
           4.75246996e-01     5.11415005e-01     0.00000000e+00    
           5.33852994e-01     5.04921973e-01     0.00000000e+00    
           5.33852994e-01     5.17907977e-01     0.00000000e+00    
           4.83779997e-01     5.34618974e-01     0.00000000e+00    
           4.68984991e-01     5.34618974e-01     0.00000000e+00    
           4.76381987e-01     5.23841977e-01     0.00000000e+00    
           4.68984991e-01     4.66010004e-01     0.00000000e+00    
           4.83779997e-01     4.66010004e-01     0.00000000e+00    
           4.99920011e-01     5.34618974e-01     0.00000000e+00    
           4.89203990e-01     5.34618974e-01     0.00000000e+00    
           4.94562000e-01     5.22280991e-01     0.00000000e+00    
           4.89203990e-01     4.66010004e-01     0.00000000e+00    
           4.99920011e-01     4.66010004e-01     0.00000000e+00    
           5.32517016e-01     4.74112004e-01     0.00000000e+00    
           5.17961025e-01     4.74112004e-01     0.00000000e+00    
           5.33852994e-01     5.19801974e-01     0.00000000e+00    
           5.33852994e-01     5.29603004e-01     0.00000000e+00    
           5.19536972e-01     5.24702013e-01     0.00000000e+00    
           4.65243995e-01     5.29603004e-01     0.00000000e+00    
           4.65243995e-01     5.19801974e-01     0.00000000e+00    
           4.92487997e-01     5.17117977e-01     0.00000000e+00    
           4.76904988e-01     5.17117977e-01     0.00000000e+00    
           5.17996013e-01     5.27033985e-01     0.00000000e+00    
           5.04473984e-01     5.27033985e-01     0.00000000e+00    
           5.08446991e-01     4.83435005e-01     0.00000000e+00    
           4.94414002e-01     4.83435005e-01     0.00000000e+00    
           4.65243995e-01     4.83101994e-01     0.00000000e+00    
           4.65243995e-01     4.74415004e-01     0.00000000e+00    
           4.78336990e-01     4.78758007e-01     0.00000000e+00    
           5.33852994e-01     4.74415004e-01     0.00000000e+00    
           5.33852994e-01     4.83101994e-01     0.00000000e+00    
           4.80668008e-01     4.95810986e-01     0.00000000e+00    
           4.66084987e-01     4.95810986e-01     0.00000000e+00    
           4.93930012e-01     4.79214013e-01     0.00000000e+00    
           4.78967011e-01     4.79214013e-01     0.00000000e+00    
           5.09284973e-01     4.97658014e-01     0.00000000e+00    
           4.95503992e-01     4.97658014e-01     0.00000000e+00    
           5.33011973e-01     5.01751006e-01     0.00000000e+00    
           5.17829001e-01     5.01751006e-01     0.00000000e+00    
           4.95451003e-01     5.00564992e-01     0.00000000e+00    
           4.80922014e-01     5.00564992e-01     0.00000000e+00    
           5.25367022e-01     4.88312006e-01     0.00000000e+00    
           5.09521008e-01     4.88312006e-01     0.00000000e+00    
           4.65243995e-01     5.34618974e-01     0.00000000e+00    
           4.65243995e-01     4.66010004e-01     0.00000000e+00    
           5.33852994e-01     4.66010004e-01     0.00000000e+00    
           5.33852994e-01     5.34618974e-01     0.00000000e+00    
           5.21338999e-01     5.13502657e-01     0.00000000e+00    
           5.20626605e-01     5.15222490e-01     0.00000000e+00    
           5.19493401e-01     5.16699374e-01     0.00000000e+00    
           5.18016517e-01     5.17832637e-01     0.00000000e+00    
           5.16296625e-01     5.18545032e-01     0.00000000e+00    
           5.14451027e-01     5.18787980e-01     0.00000000e+00    
           5.12605369e-01     5.18545032e-01     0.00000000e+00    
           5.10885477e-01     5.17832637e-01     0.00000000e+00    
           5.09408593e-01     5.16699374e-01     0.00000000e+00    
           5.08275390e-01     5.15222490e-01     0.00000000e+00    
           5.07562995e-01     5.13502657e-01     0.00000000e+00    
           5.07562995e-01     5.09811342e-01     0.00000000e+00    
           5.08275390e-01     5.08091509e-01     0.00000000e+00    
           5.09408593e-01     5.06614625e-01     0.00000000e+00    
           5.10885477e-01     5.05481362e-01     0.00000000e+00    
           5.12605369e-01     5.04768968e-01     0.00000000e+00    
           5.14451027e-01     5.04526019e-01     0.00000000e+00    
           5.16296625e-01     5.04768968e-01     0.00000000e+00    
           5.18016517e-01     5.05481362e-01     0.00000000e+00    
           5.19493401e-01     5.06614625e-01     0.00000000e+00    
           5.20626605e-01     5.08091509e-01     0.00000000e+00    
           5.21338999e-01     5.09811342e-01     0.00000000e+00    
           4.66931671e-01     5.04409373e-01     0.00000000e+00    
           4.68693614e-01     5.04328012e-01     0.00000000e+00    
           4.70421344e-01     5.04682958e-01     0.00000000e+00    
           4.72008497e-01     5.05452335e-01     0.00000000e+00    
           4.73357379e-01     5.06588817e-01     0.00000000e+00    
           4.74384934e-01     5.08022368e-01     0.00000000e+00    
           4.75027919e-01     5.09664834e-01     0.00000000e+00    
           4.75028187e-01     5.13165236e-01     0.00000000e+00    
           4.74385172e-01     5.14807761e-01     0.00000000e+00    
           4.73357558e-01     5.16241372e-01     0.00000000e+00    
           4.72008646e-01     5.17377913e-01     0.00000000e+00    
           4.70421433e-01     5.18147290e-01     0.00000000e+00    
           4.68693614e-01     5.18502235e-01     0.00000000e+00    
           4.66931641e-01     5.18420875e-01     0.00000000e+00    
           5.32303810e-01     5.16964078e-01     0.00000000e+00    
           5.31043947e-01     5.15658796e-01     0.00000000e+00    
           5.30155540e-01     5.14077127e-01     0.00000000e+00    
           5.29696345e-01     5.12322068e-01     0.00000000e+00    
           5.29696345e-01     5.10507941e-01     0.00000000e+00    
           5.30155540e-01     5.08752882e-01     0.00000000e+00    
           5.31043947e-01     5.07171214e-01     0.00000000e+00    
           5.32303810e-01     5.05865932e-01     0.00000000e+00    
           4.68517244e-01     5.32760799e-01     0.00000000e+00    
           4.68509018e-01     5.30844629e-01     0.00000000e+00    
           4.68960851e-01     5.28982460e-01     0.00000000e+00    
           4.69846308e-01     5.27283132e-01     0.00000000e+00    
           4.71113682e-01     5.25845945e-01     0.00000000e+00    
           4.72688884e-01     5.24754822e-01     0.00000000e+00    
           4.74479854e-01     5.24073541e-01     0.00000000e+00    
           4.78284091e-01     5.24073601e-01     0.00000000e+00    
           4.80075032e-01     5.24754822e-01     0.00000000e+00    
           4.81650203e-01     5.25845885e-01     0.00000000e+00    
           4.82917547e-01     5.27283013e-01     0.00000000e+00    
           4.83803004e-01     5.28982282e-01     0.00000000e+00    
           4.84254897e-01     5.30844331e-01     0.00000000e+00    
           4.84246761e-01     5.32760441e-01     0.00000000e+00    
           4.82887864e-01     4.67691004e-01     0.00000000e+00    
           4.81620818e-01     4.69110936e-01     0.00000000e+00    
           4.80051905e-01     4.70188022e-01     0.00000000e+00    
           4.78271484e-01     4.70860153e-01     0.00000000e+00    
           4.76382166e-01     4.71088618e-01     0.00000000e+00    
           4.74492878e-01     4.70860243e-01     0.00000000e+00    
           4.72712427e-01     4.70188200e-01     0.00000000e+00    
           4.71143454e-01     4.69111174e-01     0.00000000e+00    
           4.69876349e-01     4.67691302e-01     0.00000000e+00    
           4.88103986e-01     5.33086061e-01     0.00000000e+00    
           4.87431526e-01     5.31323195e-01     0.00000000e+00    
           4.87231195e-01     5.29447019e-01     0.00000000e+00    
           4.87516224e-01     5.27581930e-01     0.00000000e+00    
           4.88267750e-01     5.25851250e-01     0.00000000e+00    
           4.89436030e-01     5.24369657e-01     0.00000000e+00    
           4.90943670e-01     5.23235261e-01     0.00000000e+00    
           4.92690891e-01     5.22523046e-01     0.00000000e+00    
           4.96432930e-01     5.22523701e-01     0.00000000e+00    
           4.98180002e-01     5.23235798e-01     0.00000000e+00    
           4.99687493e-01     5.24370134e-01     0.00000000e+00    
           5.00855684e-01     5.25851607e-01     0.00000000e+00    
           5.01607120e-01     5.27582109e-01     0.00000000e+00    
           5.01892149e-01     5.29447079e-01     0.00000000e+00    
           5.01691818e-01     5.31323016e-01     0.00000000e+00    
           5.01019418e-01     5.33085763e-01     0.00000000e+00    
           4.98371124e-01     4.67269689e-01     0.00000000e+00    
           4.96539861e-01     4.68064904e-01     0.00000000e+00    
           4.94562000e-01     4.68336672e-01     0.00000000e+00    
           4.92584139e-01     4.68064904e-01     0.00000000e+00    
           4.90752876e-01     4.67269689e-01     0.00000000e+00    
           5.32269001e-01     4.75995690e-01     0.00000000e+00    
           5.31541944e-01     4.77750987e-01     0.00000000e+00    
           5.30385315e-01     4.79258329e-01     0.00000000e+00    
           5.28877974e-01     4.80414927e-01     0.00000000e+00    
[...]
      <PointData>
        <DataArray type="Float32" Name="Displacement" NumberOfComponents="3">
           5.48695607e-05     7.87293771e-04     0.00000000e+00    
           4.83240256e-05     7.95292028e-04     0.00000000e+00    
           1.96505898e-05     7.99626810e-04     0.00000000e+00    
           4.55760892e-05     7.77916168e-04     0.00000000e+00    
           3.78929653e-05     8.11054197e-04     0.00000000e+00    
           4.55760892e-05     7.77916168e-04     0.00000000e+00    
           1.96505898e-05     7.99626810e-04     0.00000000e+00    
           3.89207016e-05     1.17032090e-03     0.00000000e+00    
           3.30291950e-05     1.15187571e-03     0.00000000e+00    
           5.03358860e-05     1.14318461e-03     0.00000000e+00    
           3.30291950e-05    -2.31242720e-05     0.00000000e+00    
           3.89207016e-05    -4.67909194e-06     0.00000000e+00    
           4.05422215e-05     1.11367367e-03     0.00000000e+00    
           3.72308168e-05     1.13062852e-03     0.00000000e+00    
           1.84597830e-05     1.10320468e-03     0.00000000e+00    
           3.72308168e-05    -4.43714562e-05     0.00000000e+00    
           4.05422215e-05    -6.13263037e-05     0.00000000e+00    
           3.26717673e-05     1.68114231e-04     0.00000000e+00    
           2.71869030e-05     1.67902675e-04     0.00000000e+00    
           6.30976938e-05     9.91223031e-04     0.00000000e+00    
           5.09665624e-05     1.00939826e-03     0.00000000e+00    
           5.45737603e-05     9.87184234e-04     0.00000000e+00    
           5.09665624e-05     1.00939826e-03     0.00000000e+00    
           6.30976938e-05     9.91223031e-04     0.00000000e+00    
           4.10463508e-05     9.55377822e-04     0.00000000e+00    
           3.52089664e-05     9.21884726e-04     0.00000000e+00    
           5.31656588e-05     1.01511227e-03     0.00000000e+00    
           5.11880171e-05     1.04754791e-03     0.00000000e+00    
           4.87157995e-05     3.93937575e-04     0.00000000e+00    
           4.31148583e-05     3.38504382e-04     0.00000000e+00    
           3.29520808e-05     2.08009078e-04     0.00000000e+00    
           4.38629322e-05     1.94224442e-04     0.00000000e+00    
           4.05595965e-05     2.17695066e-04     0.00000000e+00    
           4.38629322e-05     1.94224442e-04     0.00000000e+00    
           3.29520808e-05     2.08009078e-04     0.00000000e+00    
           3.30964358e-05     5.63437061e-04     0.00000000e+00    
           2.94935689e-05     5.75200480e-04     0.00000000e+00    
           4.88335136e-05     2.81410670e-04     0.00000000e+00    
           4.48557039e-05     2.22510964e-04     0.00000000e+00    
           5.30031612e-05     5.23824070e-04     0.00000000e+00    
           4.61756063e-05     5.55821578e-04     0.00000000e+00    
           4.01358338e-05     6.78368146e-04     0.00000000e+00    
           3.23218846e-05     6.88393717e-04     0.00000000e+00    
           4.44324396e-05     5.81273227e-04     0.00000000e+00    
           3.91441172e-05     6.08337694e-04     0.00000000e+00    
           7.60101757e-05     4.33481677e-04     0.00000000e+00    
           6.85715859e-05     4.34613728e-04     0.00000000e+00    
           0.00000000e+00     1.17499998e-03     0.00000000e+00    
           0.00000000e+00     0.00000000e+00     0.00000000e+00    
           0.00000000e+00     0.00000000e+00     0.00000000e+00    
           0.00000000e+00     1.17499998e-03     0.00000000e+00    
           5.56030027e-05     7.92038220e-04     0.00000000e+00    
           5.63343783e-05     7.95474800e-04     0.00000000e+00    
           5.64622424e-05     7.98541005e-04     0.00000000e+00    
           5.59599357e-05     8.00865470e-04     0.00000000e+00    
           5.51684498e-05     8.02577008e-04     0.00000000e+00    
           5.44408176e-05     8.03810835e-04     0.00000000e+00    
           5.38477543e-05     8.04385985e-04     0.00000000e+00    
           5.32964623e-05     8.04256997e-04     0.00000000e+00    
           5.25727810e-05     8.03467236e-04     0.00000000e+00    
           5.09779566e-05     8.01364426e-04     0.00000000e+00    
           4.95574714e-05     7.98617839e-04     0.00000000e+00    
           4.74277367e-05     7.91564817e-04     0.00000000e+00    
           4.69601946e-05     7.88653037e-04     0.00000000e+00    
           4.65188750e-05     7.86280958e-04     0.00000000e+00    
           4.61571144e-05     7.84569595e-04     0.00000000e+00    
           4.61413438e-05     7.83173658e-04     0.00000000e+00    
           4.64203913e-05     7.82105955e-04     0.00000000e+00    
           4.74422923e-05     7.80966424e-04     0.00000000e+00    
           4.87873331e-05     7.80024391e-04     0.00000000e+00    
           5.06196884e-05     7.80265371e-04     0.00000000e+00    
           5.17058797e-05     7.81271083e-04     0.00000000e+00    
           5.30374273e-05     7.83501077e-04     0.00000000e+00    
           4.84743287e-05     7.80716073e-04     0.00000000e+00    
           4.99111629e-05     7.84478674e-04     0.00000000e+00    
           4.98731897e-05     7.88656180e-04     0.00000000e+00    
           4.87717989e-05     7.93098938e-04     0.00000000e+00    
           4.70570740e-05     7.97764340e-04     0.00000000e+00    
           4.48579412e-05     8.02376657e-04     0.00000000e+00    
           4.18281379e-05     8.07255972e-04     0.00000000e+00    
           3.32019663e-05     8.13699618e-04     0.00000000e+00    
           2.89293566e-05     8.14315223e-04     0.00000000e+00    
           2.53951530e-05     8.13911087e-04     0.00000000e+00    
           2.28702793e-05     8.12345301e-04     0.00000000e+00    
           2.10526796e-05     8.10044352e-04     0.00000000e+00    
           1.97663867e-05     8.07099277e-04     0.00000000e+00    
           1.91462786e-05     8.03561998e-04     0.00000000e+00    
           2.11941951e-05     7.95326778e-04     0.00000000e+00    
           2.38588200e-05     7.91205559e-04     0.00000000e+00    
           2.65902581e-05     7.86532823e-04     0.00000000e+00    
           2.95493192e-05     7.82061368e-04     0.00000000e+00    
           3.33690805e-05     7.77667796e-04     0.00000000e+00    
           3.69317459e-05     7.75281107e-04     0.00000000e+00    
           3.96992800e-05     7.75117776e-04     0.00000000e+00    
           4.26080660e-05     7.75929831e-04     0.00000000e+00    
           3.49491092e-05     1.14724354e-03     0.00000000e+00    
           3.82036342e-05     1.14325818e-03     0.00000000e+00    
           4.21133991e-05     1.14071381e-03     0.00000000e+00    
           4.51561755e-05     1.13961520e-03     0.00000000e+00    
           4.72087850e-05     1.13955105e-03     0.00000000e+00    
           4.85899363e-05     1.14021567e-03     0.00000000e+00    
           4.95434579e-05     1.14133721e-03     0.00000000e+00    
           5.07183286e-05     1.14565482e-03     0.00000000e+00    
           5.01657960e-05     1.14877347e-03     0.00000000e+00    
           4.85281562e-05     1.15212018e-03     0.00000000e+00    
           4.58275390e-05     1.15525175e-03     0.00000000e+00    
           4.31390399e-05     1.15921290e-03     0.00000000e+00    
           4.13000198e-05     1.16338336e-03     0.00000000e+00    
           4.01265861e-05     1.16693298e-03     0.00000000e+00    
           3.75416421e-05    -2.62295271e-06     0.00000000e+00    
           3.58386533e-05    -1.66278403e-06     0.00000000e+00    
           3.40670449e-05    -1.81696760e-06     0.00000000e+00    
           3.20850086e-05    -2.81917164e-06     0.00000000e+00    
           3.05089579e-05    -4.91894434e-06     0.00000000e+00    
           2.96924318e-05    -7.61283127e-06     0.00000000e+00    
           2.98128343e-05    -1.09749008e-05     0.00000000e+00    
           3.07716255e-05    -1.47332339e-05     0.00000000e+00    
           3.16218866e-05    -1.88085323e-05     0.00000000e+00    
           3.49597794e-05     1.12966914e-03     0.00000000e+00    
           3.22509622e-05     1.12730975e-03     0.00000000e+00    
           2.88694737e-05     1.12400134e-03     0.00000000e+00    
           2.47116295e-05     1.11929362e-03     0.00000000e+00    
           2.16581811e-05     1.11545844e-03     0.00000000e+00    
           1.90457758e-05     1.11199857e-03     0.00000000e+00    
           1.77030415e-05     1.10843347e-03     0.00000000e+00    
           1.75477508e-05     1.10537140e-03     0.00000000e+00    
           1.97072877e-05     1.10138592e-03     0.00000000e+00    
           2.12202667e-05     1.09992782e-03     0.00000000e+00    
           2.31647882e-05     1.09913910e-03     0.00000000e+00    
           2.55325576e-05     1.09908974e-03     0.00000000e+00    
           2.85810183e-05     1.09984551e-03     0.00000000e+00    
           3.21366642e-05     1.10162620e-03     0.00000000e+00    
           3.57184690e-05     1.10498106e-03     0.00000000e+00    
           3.85000421e-05     1.10906526e-03     0.00000000e+00    
           4.17867705e-05    -5.68190662e-05     0.00000000e+00    
           4.22232333e-05    -5.26458061e-05     0.00000000e+00    
           4.18153068e-05    -4.91125793e-05     0.00000000e+00    
           4.06466716e-05    -4.64742188e-05     0.00000000e+00    
           3.90825517e-05    -4.48187820e-05     0.00000000e+00    
           3.21249972e-05     1.70701154e-04     0.00000000e+00    
           3.11637341e-05     1.72132393e-04     0.00000000e+00    
           3.03632096e-05     1.73954104e-04     0.00000000e+00    
           3.00806314e-05     1.75861816e-04     0.00000000e+00    
           2.97014394e-05     1.77691836e-04     0.00000000e+00    
           2.89587588e-05     1.78497998e-04     0.00000000e+00    
           2.86670875e-05     1.78885151e-04     0.00000000e+00    
           2.82440215e-05     1.78304414e-04     0.00000000e+00    
           2.83038953e-05     1.77164577e-04     0.00000000e+00    
           2.82363708e-05     1.75299603e-04     0.00000000e+00    
           2.74300401e-05     1.72342450e-04     0.00000000e+00    
           2.71357312e-05     1.64162673e-04     0.00000000e+00    
           2.79154046e-05     1.60432217e-04     0.00000000e+00    
           2.89178097e-05     1.58019757e-04     0.00000000e+00    
           2.96540456e-05     1.56525944e-04     0.00000000e+00    
           3.01252458e-05     1.55687405e-04     0.00000000e+00    
           3.05466892e-05     1.55364745e-04     0.00000000e+00    
           3.08995477e-05     1.55594156e-04     0.00000000e+00    
           3.10708310e-05     1.56674549e-04     0.00000000e+00    
           3.18054736e-05     1.58344090e-04     0.00000000e+00    
           3.25924484e-05     1.61118718e-04     0.00000000e+00    
           3.29585382e-05     1.64393496e-04     0.00000000e+00    
           4.91320789e-05     1.00956508e-03     0.00000000e+00    
           4.79545342e-05     1.00916857e-03     0.00000000e+00    
           4.72482243e-05     1.00801210e-03     0.00000000e+00    
           4.73764849e-05     1.00613129e-03     0.00000000e+00    
           4.82181385e-05     1.00363989e-03     0.00000000e+00    
           4.93236366e-05     1.00084033e-03     0.00000000e+00    
           5.06079705e-05     9.97320982e-04     0.00000000e+00    
           5.24909628e-05     9.93539230e-04     0.00000000e+00    
           5.40926703e-05     9.90237691e-04     0.00000000e+00    
           5.47572345e-05     9.83822509e-04     0.00000000e+00    
           5.53195132e-05     9.81127960e-04     0.00000000e+00    
           5.70540869e-05     9.79357865e-04     0.00000000e+00    
           5.91772550e-05     9.78988828e-04     0.00000000e+00    
           6.11230789e-05     9.79513512e-04     0.00000000e+00    
           6.28593698e-05     9.80622135e-04     0.00000000e+00    
           6.41890656e-05     9.82467784e-04     0.00000000e+00    
           6.44487300e-05     9.84660233e-04     0.00000000e+00    
           6.41584338e-05     9.87721141e-04     0.00000000e+00    
           6.22082662e-05     9.94820031e-04     0.00000000e+00    
           6.08533956e-05     9.98927513e-04     0.00000000e+00    
           5.89283263e-05     1.00299274e-03     0.00000000e+00    
           5.60283661e-05     1.00653630e-03     0.00000000e+00    
           5.31731130e-05     1.00845599e-03     0.00000000e+00    
           3.73505063e-05     9.58970108e-04     0.00000000e+00    
           3.34705801e-05     9.61330486e-04     0.00000000e+00    
           3.05022131e-05     9.61184094e-04     0.00000000e+00    
           2.78505504e-05     9.60013189e-04     0.00000000e+00    
           2.52791378e-05     9.57812939e-04     0.00000000e+00    
           2.28996450e-05     9.54591902e-04     0.00000000e+00    
           2.15599193e-05     9.50612768e-04     0.00000000e+00    
           2.13823278e-05     9.46012849e-04     0.00000000e+00    
           2.25562671e-05     9.41152743e-04     0.00000000e+00    
           2.51458187e-05     9.36488388e-04     0.00000000e+00    
           2.77689524e-05     9.31582006e-04     0.00000000e+00    
           3.11805743e-05     9.26030916e-04     0.00000000e+00    
           3.99044657e-05     9.18767648e-04     0.00000000e+00    
           4.46384147e-05     9.17589001e-04     0.00000000e+00    
           4.86609679e-05     9.17771948e-04     0.00000000e+00    
           5.18896668e-05     9.19135171e-04     0.00000000e+00    
           5.41381378e-05     9.21535946e-04     0.00000000e+00    
           5.54733815e-05     9.24755121e-04     0.00000000e+00    
           5.58314423e-05     9.28770576e-04     0.00000000e+00    
           5.48500211e-05     9.33172356e-04     0.00000000e+00    
           5.29128447e-05     9.37822566e-04     0.00000000e+00    
           5.02404946e-05     9.42337734e-04     0.00000000e+00    
           4.73650180e-05     9.46805521e-04     0.00000000e+00    
           4.43830577e-05     9.51229711e-04     0.00000000e+00    
           5.81141612e-05     1.01905223e-03     0.00000000e+00    
           6.27630507e-05     1.02400081e-03     0.00000000e+00    
           6.58860154e-05     1.02925079e-03     0.00000000e+00    
           6.74167386e-05     1.03429658e-03     0.00000000e+00    
           6.77257631e-05     1.03907334e-03     0.00000000e+00    
           6.68977809e-05     1.04329514e-03     0.00000000e+00    
           6.52158415e-05     1.04663381e-03     0.00000000e+00    
           6.27640766e-05     1.04885525e-03     0.00000000e+00    
           5.94649136e-05     1.04977586e-03     0.00000000e+00    
           5.55339320e-05     1.04931730e-03     0.00000000e+00    
           4.68187318e-05     1.04382436e-03     0.00000000e+00    
           4.33814639e-05     1.03899860e-03     0.00000000e+00    
           4.09211279e-05     1.03348296e-03     0.00000000e+00    
           3.97022341e-05     1.02764799e-03     0.00000000e+00    
           3.88806802e-05     1.02226832e-03     0.00000000e+00    
           3.91845533e-05     1.01766118e-03     0.00000000e+00    
           4.04359562e-05     1.01404602e-03     0.00000000e+00    
           4.26417719e-05     1.01181061e-03     0.00000000e+00    
           4.56021044e-05     1.01178000e-03     0.00000000e+00    
           4.89923586e-05     1.01270049e-03     0.00000000e+00    
           4.25551843e-05     3.95783136e-04     0.00000000e+00    
           3.61051534e-05     3.95567273e-04     0.00000000e+00    
           3.01810760e-05     3.93819151e-04     0.00000000e+00    
           2.55812920e-05     3.90481204e-04     0.00000000e+00    
           2.25391541e-05     3.85319639e-04     0.00000000e+00    
           2.09072914e-05     3.78870289e-04     0.00000000e+00    
           2.10305807e-05     3.71604459e-04     0.00000000e+00    
           2.29179732e-05     3.64108797e-04     0.00000000e+00    
           2.56433850e-05     3.56409320e-04     0.00000000e+00    
           3.01218297e-05     3.49166017e-04     0.00000000e+00    
           3.60232516e-05     3.42974992e-04     0.00000000e+00    
           5.03142546e-05     3.37117701e-04     0.00000000e+00    
           5.71307392e-05     3.38049373e-04     0.00000000e+00    
           6.31176590e-05     3.40873812e-04     0.00000000e+00    
           6.73267205e-05     3.44998611e-04     0.00000000e+00    
           7.01175231e-05     3.50415183e-04     0.00000000e+00    
           7.12479086e-05     3.56946694e-04     0.00000000e+00    
           7.08162333e-05     3.63991800e-04     0.00000000e+00    
           6.88093060e-05     3.71139642e-04     0.00000000e+00    
           6.55021868e-05     3.78191064e-04     0.00000000e+00    
           6.09756353e-05     3.84511019e-04     0.00000000e+00    
           5.53820500e-05     3.89941531e-04     0.00000000e+00    
           4.63075703e-05     1.93948086e-04     0.00000000e+00    
           4.81717252e-05     1.93803062e-04     0.00000000e+00    
           4.96144603e-05     1.94723019e-04     0.00000000e+00    
           5.04163327e-05     1.96652225e-04     0.00000000e+00    
           5.05178323e-05     1.99176298e-04     0.00000000e+00    
           4.98371664e-05     2.02352545e-04     0.00000000e+00    
           4.87319230e-05     2.06010634e-04     0.00000000e+00    
           4.67398168e-05     2.10856320e-04     0.00000000e+00    
           4.38251009e-05     2.14939748e-04     0.00000000e+00    
           3.77765391e-05     2.19621012e-04     0.00000000e+00    
           3.58000652e-05     2.21572875e-04     0.00000000e+00    
           3.42847597e-05     2.23149895e-04     0.00000000e+00    
           3.26586996e-05     2.23251773e-04     0.00000000e+00    
           3.19409992e-05     2.22366187e-04     0.00000000e+00    
           3.13389937e-05     2.20616217e-04     0.00000000e+00    
           3.11337280e-05     2.18134519e-04     0.00000000e+00    
           3.14712015e-05     2.15108594e-04     0.00000000e+00    
           3.22186570e-05     2.11659673e-04     0.00000000e+00    
           3.43783831e-05     2.03769989e-04     0.00000000e+00    
           3.65475353e-05     1.99675429e-04     0.00000000e+00    
           3.91043832e-05     1.96382345e-04     0.00000000e+00    
           4.13316957e-05     1.94939945e-04     0.00000000e+00    
           3.34686920e-05     5.66855539e-04     0.00000000e+00    
           3.41742125e-05     5.69279073e-04     0.00000000e+00    
           3.50886330e-05     5.71851095e-04     0.00000000e+00    
           3.61379680e-05     5.74930222e-04     0.00000000e+00    
           3.63216459e-05     5.77897532e-04     0.00000000e+00    
           3.60612976e-05     5.80007036e-04     0.00000000e+00    
           3.55758930e-05     5.81323809e-04     0.00000000e+00    
           3.51755261e-05     5.81905420e-04     0.00000000e+00    
           3.47433052e-05     5.81662869e-04     0.00000000e+00    
           3.35240329e-05     5.80585795e-04     0.00000000e+00    
           3.16247533e-05     5.78391831e-04     0.00000000e+00    
           2.79525611e-05     5.71357377e-04     0.00000000e+00    
           2.70105756e-05     5.67120849e-04     0.00000000e+00    
           2.66363659e-05     5.63412905e-04     0.00000000e+00    
           2.58650107e-05     5.60418121e-04     0.00000000e+00    
           2.55301147e-05     5.57792780e-04     0.00000000e+00    
           2.57206684e-05     5.55624662e-04     0.00000000e+00    
           2.65322233e-05     5.54267608e-04     0.00000000e+00    
           2.80137556e-05     5.53867198e-04     0.00000000e+00    
           2.96957260e-05     5.54602011e-04     0.00000000e+00    