<?xml version="1.0"?>
<VTKFile type="UnstructuredGrid" version="0.1">
  <UnstructuredGrid>
    <Piece NumberOfPoints="1034" NumberOfCells="1614">
      <Points>
        <DataArray type="Float32" NumberOfComponents="3">
           5.21582007e-01     5.11657000e-01     0.00000000e+00    
           5.07319987e-01     5.11657000e-01     0.00000000e+00    
           4.65243995e-01     5.17907977e-01     0.00000000e+00    
           4.65243995e-01     5.04921973e-01     0.00000000e+00    
           4.75246996e-01     5.11415005e-01     0.00000000e+00    
           5.33852994e-01     5.04921973e-01     0.00000000e+00    
           5.33852994e-01     5.17907977e-01     0.00000000e+00    
           4.83779997e-01     5.34618974e-01     0.00000000e+00    
           4.68984991e-01     5.34618974e-01     0.00000000e+00    
           4.76381987e-01     5.23841977e-01     0.00000000e+00    
           4.68984991e-01     4.66010004e-01     0.00000000e+00    
           4.83779997e-01     4.66010004e-01     0.00000000e+00    
           4.99920011e-01     5.34618974e-01     0.00000000e+00    
           4.89203990e-01     5.34618974e-01     0.00000000e+00    
           4.94562000e-01     5.22280991e-01     0.00000000e+00    
           4.89203990e-01     4.66010004e-01     0.00000000e+00    
           4.99920011e-01     4.66010004e-01     0.00000000e+00    
           5.32517016e-01     4.74112004e-01     0.00000000e+00    
           5.17961025e-01     4.74112004e-01     0.00000000e+00    
           5.33852994e-01     5.19801974e-01     0.00000000e+00    
           5.33852994e-01     5.29603004e-01     0.00000000e+00    
           5.19536972e-01     5.24702013e-01     0.00000000e+00    
           4.65243995e-01     5.29603004e-01     0.00000000e+00    
           4.65243995e-01     5.19801974e-01     0.00000000e+00    
           4.92487997e-01     5.17117977e-01     0.00000000e+00    
           4.76904988e-01     5.17117977e-01     0.00000000e+00    
           5.17996013e-01     5.27033985e-01     0.00000000e+00    
           5.04473984e-01     5.27033985e-01     0.00000000e+00    
           5.08446991e-01     4.83435005e-01     0.00000000e+00    
           4.94414002e-01     4.83435005e-01     0.00000000e+00    
           4.65243995e-01     4.83101994e-01     0.00000000e+00    
           4.65243995e-01     4.74415004e-01     0.00000000e+00    
           4.78336990e-01     4.78758007e-01     0.00000000e+00    
           5.33852994e-01     4.74415004e-01     0.00000000e+00    
           5.33852994e-01     4.83101994e-01     0.00000000e+00    
           4.80668008e-01     4.95810986e-01     0.00000000e+00    
           4.66084987e-01     4.95810986e-01     0.00000000e+00    
           4.93930012e-01     4.79214013e-01     0.00000000e+00    
           4.78967011e-01     4.79214013e-01     0.00000000e+00    
           5.09284973e-01     4.97658014e-01     0.00000000e+00    
           4.95503992e-01     4.97658014e-01     0.00000000e+00    
           5.33011973e-01     5.01751006e-01     0.00000000e+00    
           5.17829001e-01     5.01751006e-01     0.00000000e+00    
           4.95451003e-01     5.00564992e-01     0.00000000e+00    
           4.80922014e-01     5.00564992e-01     0.00000000e+00    
           5.25367022e-01     4.88312006e-01     0.00000000e+00    
           5.09521008e-01     4.88312006e-01     0.00000000e+00    
           4.65243995e-01     5.34618974e-01     0.00000000e+00    
           4.65243995e-01     4.66010004e-01     0.00000000e+00    
           5.33852994e-01     4.66010004e-01     0.00000000e+00    
           5.33852994e-01     5.34618974e-01     0.00000000e+00    
           5.21338999e-01     5.13502657e-01     0.00000000e+00    
           5.20626605e-01     5.15222490e-01     0.00000000e+00    
           5.19493401e-01     5.16699374e-01     0.00000000e+00    
           5.18016517e-01     5.17832637e-01     0.00000000e+00    
           5.16296625e-01     5.18545032e-01     0.00000000e+00    
           5.14451027e-01     5.18787980e-01     0.00000000e+00    
           5.12605369e-01     5.18545032e-01     0.00000000e+00    
           5.10885477e-01     5.17832637e-01     0.00000000e+00    
           5.09408593e-01     5.16699374e-01     0.00000000e+00    
           5.08275390e-01     5.15222490e-01     0.00000000e+00    
           5.07562995e-01     5.13502657e-01     0.00000000e+00    
           5.07562995e-01     5.09811342e-01     0.00000000e+00    
           5.08275390e-01     5.08091509e-01     0.00000000e+00    
           5.09408593e-01     5.06614625e-01     0.00000000e+00    
           5.10885477e-01     5.05481362e-01     0.00000000e+00    
           5.12605369e-01     5.04768968e-01     0.00000000e+00    
           5.14451027e-01     5.04526019e-01     0.00000000e+00    
           5.16296625e-01     5.04768968e-01     0.00000000e+00    
           5.18016517e-01     5.05481362e-01     0.00000000e+00    
           5.19493401e-01     5.06614625e-01     0.00000000e+00    
           5.20626605e-01     5.08091509e-01     0.00000000e+00    
           5.21338999e-01     5.09811342e-01     0.00000000e+00    
           4.66931671e-01     5.04409373e-01     0.00000000e+00    
           4.68693614e-01     5.04328012e-01     0.00000000e+00    
           4.70421344e-01     5.04682958e-01     0.00000000e+00    
           4.72008497e-01     5.05452335e-01     0.00000000e+00    
           4.73357379e-01     5.06588817e-01     0.00000000e+00    
           4.74384934e-01     5.08022368e-01     0.00000000e+00    
           4.75027919e-01     5.09664834e-01     0.00000000e+00    
           4.75028187e-01     5.13165236e-01     0.00000000e+00    
           4.74385172e-01     5.14807761e-01     0.00000000e+00    
           4.73357558e-01     5.16241372e-01     0.00000000e+00    
           4.72008646e-01     5.17377913e-01     0.00000000e+00    
           4.70421433e-01     5.18147290e-01     0.00000000e+00    
           4.68693614e-01     5.18502235e-01     0.00000000e+00    
           4.66931641e-01     5.18420875e-01     0.00000000e+00    
           5.32303810e-01     5.16964078e-01     0.00000000e+00    
           5.31043947e-01     5.15658796e-01     0.00000000e+00    
           5.30155540e-01     5.14077127e-01     0.00000000e+00    
           5.29696345e-01     5.12322068e-01     0.00000000e+00    
           5.29696345e-01     5.10507941e-01     0.00000000e+00    
           5.30155540e-01     5.08752882e-01     0.00000000e+00    
           5.31043947e-01     5.07171214e-01     0.00000000e+00    
           5.32303810e-01     5.05865932e-01     0.00000000e+00    
           4.68517244e-01     5.32760799e-01     0.00000000e+00    
           4.68509018e-01     5.30844629e-01     0.00000000e+00    
           4.68960851e-01     5.28982460e-01     0.00000000e+00    
           4.69846308e-01     5.27283132e-01     0.00000000e+00    
           4.71113682e-01     5.25845945e-01     0.00000000e+00    
           4.72688884e-01     5.24754822e-01     0.00000000e+00    
           4.74479854e-01     5.24073541e-01     0.00000000e+00    
           4.78284091e-01     5.24073601e-01     0.00000000e+00    
           4.80075032e-01     5.24754822e-01     0.00000000e+00    
           4.81650203e-01     5.25845885e-01     0.00000000e+00    
           4.82917547e-01     5.27283013e-01     0.00000000e+00    
           4.83803004e-01     5.28982282e-01     0.00000000e+00    
           4.84254897e-01     5.30844331e-01     0.00000000e+00    
           4.84246761e-01     5.32760441e-01     0.00000000e+00    
           4.82887864e-01     4.67691004e-01     0.00000000e+00    
           4.81620818e-01     4.69110936e-01     0.00000000e+00    
           4.80051905e-01     4.70188022e-01     0.00000000e+00    
           4.78271484e-01     4.70860153e-01     0.00000000e+00    
           4.76382166e-01     4.71088618e-01     0.00000000e+00    
           4.74492878e-01     4.70860243e-01     0.00000000e+00    
           4.72712427e-01     4.70188200e-01     0.00000000e+00    
           4.71143454e-01     4.69111174e-01     0.00000000e+00    
           4.69876349e-01     4.67691302e-01     0.00000000e+00    
           4.88103986e-01     5.33086061e-01     0.00000000e+00    
           4.87431526e-01     5.31323195e-01     0.00000000e+00    
           4.87231195e-01     5.29447019e-01     0.00000000e+00    
           4.87516224e-01     5.27581930e-01     0.00000000e+00    
           4.88267750e-01     5.25851250e-01     0.00000000e+00    
           4.89436030e-01     5.24369657e-01     0.00000000e+00    
           4.90943670e-01     5.23235261e-01     0.00000000e+00    
           4.92690891e-01     5.22523046e-01     0.00000000e+00    
           4.96432930e-01     5.22523701e-01     0.00000000e+00    
           4.98180002e-01     5.23235798e-01     0.00000000e+00    
           4.99687493e-01     5.24370134e-01     0.00000000e+00    
           5.00855684e-01     5.25851607e-01     0.00000000e+00    
           5.01607120e-01     5.27582109e-01     0.00000000e+00    
           5.01892149e-01     5.29447079e-01     0.00000000e+00    
           5.01691818e-01     5.31323016e-01     0.00000000e+00    
           5.01019418e-01     5.33085763e-01     0.00000000e+00    
           4.98371124e-01     4.67269689e-01     0.00000000e+00    
           4.96539861e-01     4.68064904e-01     0.00000000e+00    
           4.94562000e-01     4.68336672e-01     0.00000000e+00    
           4.92584139e-01     4.68064904e-01     0.00000000e+00    
           4.90752876e-01     4.67269689e-01     0.00000000e+00    
           5.32269001e-01     4.75995690e-01     0.00000000e+00    
           5.31541944e-01     4.77750987e-01     0.00000000e+00    
           5.30385315e-01     4.79258329e-01     0.00000000e+00    
           5.28877974e-01     4.80414927e-01     0.00000000e+00    
[...]
      <PointData>
        <DataArray type="Float32" Name="Displacement" NumberOfComponents="3">
           1.90978390e-05     2.89146526e-04     0.00000000e+00    
           1.74972720e-05     3.02992121e-04     0.00000000e+00    
           2.94509641e-06     3.07273323e-04     0.00000000e+00    
           8.75904607e-06     2.91339180e-04     0.00000000e+00    
           6.79209734e-06     3.04528774e-04     0.00000000e+00    
           8.75904607e-06     2.91339180e-04     0.00000000e+00    
           2.94509641e-06     3.07273323e-04     0.00000000e+00    
           1.80648549e-05     4.42910066e-04     0.00000000e+00    
           1.62996603e-05     4.48757404e-04     0.00000000e+00    
           1.39797658e-05     4.34817048e-04     0.00000000e+00    
           1.62996603e-05    -1.24258725e-06     0.00000000e+00    
           1.80648549e-05    -7.08992320e-06     0.00000000e+00    
           1.43753823e-05     4.19600197e-04     0.00000000e+00    
           1.30775843e-05     4.24270547e-04     0.00000000e+00    
           7.95727192e-06     4.11715737e-04     0.00000000e+00    
           1.30775843e-05    -2.57294523e-05     0.00000000e+00    
           1.43753823e-05    -3.03997949e-05     0.00000000e+00    
           1.36340786e-05     6.27084009e-05     0.00000000e+00    
           1.21159010e-05     7.73630527e-05     0.00000000e+00    
           2.19043686e-05     3.73030372e-04     0.00000000e+00    
           1.91750078e-05     3.86266736e-04     0.00000000e+00    
           2.12963823e-05     3.78580211e-04     0.00000000e+00    
           1.91750078e-05     3.86266736e-04     0.00000000e+00    
           2.19043686e-05     3.73030372e-04     0.00000000e+00    
           1.10137826e-05     3.62995168e-04     0.00000000e+00    
           9.73043461e-06     3.58092191e-04     0.00000000e+00    
           2.11845381e-05     3.80533922e-04     0.00000000e+00    
           2.13351177e-05     3.87960812e-04     0.00000000e+00    
           1.94641343e-05     1.63163888e-04     0.00000000e+00    
           1.75809346e-05     1.40403543e-04     0.00000000e+00    
           2.04954285e-05     8.19455017e-05     0.00000000e+00    
           2.07205485e-05     7.44160134e-05     0.00000000e+00    
           2.00709310e-05     7.90975901e-05     0.00000000e+00    
           2.07205485e-05     7.44160134e-05     0.00000000e+00    
           2.04954285e-05     8.19455017e-05     0.00000000e+00    
           1.04774226e-05     2.18088622e-04     0.00000000e+00    
           1.09184657e-05     2.09571226e-04     0.00000000e+00    
           2.20244528e-05     1.10289831e-04     0.00000000e+00    
           2.12109389e-05     8.13631777e-05     0.00000000e+00    
           1.48521885e-05     1.94470369e-04     0.00000000e+00    
           1.16872170e-05     2.11452192e-04     0.00000000e+00    
           1.19593315e-05     2.58404645e-04     0.00000000e+00    
           9.16556382e-06     2.47637596e-04     0.00000000e+00    
           1.13930846e-05     2.32380233e-04     0.00000000e+00    
           9.37982441e-06     2.49224191e-04     0.00000000e+00    
           3.43900429e-05     1.70603482e-04     0.00000000e+00    
           3.23355234e-05     1.69466599e-04     0.00000000e+00    
           0.00000000e+00     4.49999992e-04     0.00000000e+00    
           0.00000000e+00     0.00000000e+00     0.00000000e+00    
           0.00000000e+00     0.00000000e+00     0.00000000e+00    
           0.00000000e+00     4.49999992e-04     0.00000000e+00    
           2.07074590e-05     2.92114622e-04     0.00000000e+00    
           2.23579118e-05     2.94743513e-04     0.00000000e+00    
           2.35434727e-05     2.97384890e-04     0.00000000e+00    
           2.41606922e-05     2.99776380e-04     0.00000000e+00    
           2.42795868e-05     3.02525033e-04     0.00000000e+00    
           2.39903438e-05     3.05294525e-04     0.00000000e+00    
           2.36171782e-05     3.07057868e-04     0.00000000e+00    
           2.30493551e-05     3.07384646e-04     0.00000000e+00    
           2.21111186e-05     3.06848291e-04     0.00000000e+00    
           2.06919140e-05     3.05806199e-04     0.00000000e+00    
           1.91589988e-05     3.04589077e-04     0.00000000e+00    
           1.58159964e-05     3.00934713e-04     0.00000000e+00    
           1.42882927e-05     2.98888219e-04     0.00000000e+00    
           1.29202563e-05     2.96832121e-04     0.00000000e+00    
           1.18179523e-05     2.94985424e-04     0.00000000e+00    
           1.11494064e-05     2.93082063e-04     0.00000000e+00    
           1.09004641e-05     2.91041302e-04     0.00000000e+00    
           1.13056767e-05     2.88635812e-04     0.00000000e+00    
           1.25110773e-05     2.85777060e-04     0.00000000e+00    
           1.43807629e-05     2.84123293e-04     0.00000000e+00    
           1.55407997e-05     2.84483860e-04     0.00000000e+00    
           1.71117863e-05     2.86564667e-04     0.00000000e+00    
           9.90482658e-06     2.91925069e-04     0.00000000e+00    
           1.03610500e-05     2.92349898e-04     0.00000000e+00    
           1.03011726e-05     2.93144927e-04     0.00000000e+00    
           9.95677692e-06     2.94909580e-04     0.00000000e+00    
           9.45064039e-06     2.97548919e-04     0.00000000e+00    
           8.79896743e-06     3.00087035e-04     0.00000000e+00    
           7.87720819e-06     3.02599656e-04     0.00000000e+00    
           5.56791656e-06     3.05922731e-04     0.00000000e+00    
           4.56181351e-06     3.06523405e-04     0.00000000e+00    
           3.86308284e-06     3.06911650e-04     0.00000000e+00    
           3.56468763e-06     3.06994858e-04     0.00000000e+00    
           3.41949226e-06     3.06946953e-04     0.00000000e+00    
           3.29733552e-06     3.06797534e-04     0.00000000e+00    
           3.01789441e-06     3.06965550e-04     0.00000000e+00    
           2.92177037e-06     3.06382484e-04     0.00000000e+00    
           3.28382725e-06     3.04275658e-04     0.00000000e+00    
           3.75151490e-06     3.00874934e-04     0.00000000e+00    
           4.27049963e-06     2.97821767e-04     0.00000000e+00    
           4.99822954e-06     2.94718484e-04     0.00000000e+00    
           5.46355432e-06     2.92092154e-04     0.00000000e+00    
           5.80316919e-06     2.90340395e-04     0.00000000e+00    
           7.09840742e-06     2.90089694e-04     0.00000000e+00    
           1.58649964e-05     4.46518854e-04     0.00000000e+00    
           1.58316980e-05     4.44420817e-04     0.00000000e+00    
           1.59136871e-05     4.42678633e-04     0.00000000e+00    
           1.56776750e-05     4.41163254e-04     0.00000000e+00    
           1.50690275e-05     4.39678377e-04     0.00000000e+00    
           1.43994175e-05     4.38193500e-04     0.00000000e+00    
           1.39340955e-05     4.36599134e-04     0.00000000e+00    
           1.47011096e-05     4.32796136e-04     0.00000000e+00    
           1.52633365e-05     4.31843917e-04     0.00000000e+00    
           1.52794637e-05     4.32408560e-04     0.00000000e+00    
           1.50877013e-05     4.33988753e-04     0.00000000e+00    
           1.50541573e-05     4.36165952e-04     0.00000000e+00    
           1.55968992e-05     4.38308751e-04     0.00000000e+00    
           1.67236194e-05     4.40387172e-04     0.00000000e+00    
           1.93059986e-05    -4.64604591e-06     0.00000000e+00    
           2.01294461e-05    -2.29351554e-06     0.00000000e+00    
           2.04146145e-05    -3.45005589e-07     0.00000000e+00    
           2.00258801e-05     1.40012150e-06     0.00000000e+00    
           1.92754196e-05     3.44248974e-06     0.00000000e+00    
           1.84741348e-05     5.06602828e-06     0.00000000e+00    
           1.79422859e-05     4.84836391e-06     0.00000000e+00    
           1.74288543e-05     3.14297563e-06     0.00000000e+00    
           1.67816106e-05     9.05686079e-07     0.00000000e+00    
           1.24753060e-05     4.23005986e-04     0.00000000e+00    
           1.17017762e-05     4.21331351e-04     0.00000000e+00    
           1.05495401e-05     4.19328571e-04     0.00000000e+00    
           8.88772956e-06     4.16634575e-04     0.00000000e+00    
           7.63616754e-06     4.13878908e-04     0.00000000e+00    
           6.75830688e-06     4.11633897e-04     0.00000000e+00    
           6.73830345e-06     4.10675886e-04     0.00000000e+00    
           7.34793048e-06     4.11112793e-04     0.00000000e+00    
           8.29485180e-06     4.11923043e-04     0.00000000e+00    
           8.58307340e-06     4.12000838e-04     0.00000000e+00    
           9.02175452e-06     4.12179856e-04     0.00000000e+00    
           9.59817862e-06     4.12519439e-04     0.00000000e+00    
           1.04720120e-05     4.13016620e-04     0.00000000e+00    
           1.16153051e-05     4.13934176e-04     0.00000000e+00    
           1.28222664e-05     4.15560789e-04     0.00000000e+00    
           1.37184443e-05     4.17476520e-04     0.00000000e+00    
           1.47102410e-05    -2.84648486e-05     0.00000000e+00    
           1.47546152e-05    -2.68615968e-05     0.00000000e+00    
           1.45186550e-05    -2.57149695e-05     0.00000000e+00    
           1.40395787e-05    -2.50370431e-05     0.00000000e+00    
           1.35434375e-05    -2.50106532e-05     0.00000000e+00    
           1.52490275e-05     6.43134117e-05     0.00000000e+00    
           1.64047433e-05     6.56749908e-05     0.00000000e+00    
           1.75487585e-05     6.76684504e-05     0.00000000e+00    
           1.87463011e-05     7.04143386e-05     0.00000000e+00    
           1.94674503e-05     7.38260642e-05     0.00000000e+00    
           1.92853840e-05     7.74761211e-05     0.00000000e+00    
           1.90368792e-05     8.14797822e-05     0.00000000e+00    
           1.80184397e-05     8.34428502e-05     0.00000000e+00    
           1.69528012e-05     8.38073902e-05     0.00000000e+00    
           1.55019225e-05     8.23239170e-05     0.00000000e+00    
           1.37224761e-05     8.01293572e-05     0.00000000e+00    
           1.04171404e-05     7.46648439e-05     0.00000000e+00    
           9.10028757e-06     7.16501308e-05     0.00000000e+00    
           8.07157267e-06     6.87001811e-05     0.00000000e+00    
           7.38047129e-06     6.56869161e-05     0.00000000e+00    
           6.98868234e-06     6.26332621e-05     0.00000000e+00    
           6.90771549e-06     5.98603219e-05     0.00000000e+00    
           7.19331683e-06     5.82258726e-05     0.00000000e+00    
           7.66663197e-06     5.79103980e-05     0.00000000e+00    
           8.88730119e-06     5.85463713e-05     0.00000000e+00    
           1.03435641e-05     5.96464415e-05     0.00000000e+00    
           1.19770630e-05     6.09885283e-05     0.00000000e+00    
           1.87504083e-05     3.87562352e-04     0.00000000e+00    
           1.83863958e-05     3.88888118e-04     0.00000000e+00    
           1.79992985e-05     3.90081084e-04     0.00000000e+00    
           1.81045834e-05     3.90440400e-04     0.00000000e+00    
           1.86851357e-05     3.89516790e-04     0.00000000e+00    
           1.90618011e-05     3.87571024e-04     0.00000000e+00    
           1.96042347e-05     3.84829473e-04     0.00000000e+00    
           2.04599382e-05     3.82292812e-04     0.00000000e+00    
           2.12273644e-05     3.80213198e-04     0.00000000e+00    
           2.08159163e-05     3.76892887e-04     0.00000000e+00    
           2.02523534e-05     3.75410542e-04     0.00000000e+00    
           2.01585899e-05     3.74146417e-04     0.00000000e+00    
           2.03218660e-05     3.73497169e-04     0.00000000e+00    
           2.04993012e-05     3.73057614e-04     0.00000000e+00    
           2.06923833e-05     3.72528157e-04     0.00000000e+00    
           2.11220104e-05     3.71760805e-04     0.00000000e+00    
           2.14401571e-05     3.70514084e-04     0.00000000e+00    
           2.18513123e-05     3.71007132e-04     0.00000000e+00    
           2.19493613e-05     3.75843840e-04     0.00000000e+00    
           2.16668122e-05     3.78641242e-04     0.00000000e+00    
           2.11654988e-05     3.81173129e-04     0.00000000e+00    
           2.03615928e-05     3.83488747e-04     0.00000000e+00    
           1.96428500e-05     3.85024119e-04     0.00000000e+00    
           1.06498710e-05     3.65363434e-04     0.00000000e+00    
           1.04254523e-05     3.67802772e-04     0.00000000e+00    
           1.04276724e-05     3.69648769e-04     0.00000000e+00    
           1.01820233e-05     3.70553520e-04     0.00000000e+00    
           9.32921193e-06     3.70198133e-04     0.00000000e+00    
           8.26045834e-06     3.69432033e-04     0.00000000e+00    
           7.67297843e-06     3.69641144e-04     0.00000000e+00    
           6.99188604e-06     3.69874004e-04     0.00000000e+00    
           6.92608137e-06     3.68859008e-04     0.00000000e+00    
           7.50326444e-06     3.66728113e-04     0.00000000e+00    
           7.96503900e-06     3.63779516e-04     0.00000000e+00    
           8.79326944e-06     3.60507081e-04     0.00000000e+00    
           1.07429223e-05     3.56067321e-04     0.00000000e+00    
           1.17992440e-05     3.54865828e-04     0.00000000e+00    
           1.25432271e-05     3.53983487e-04     0.00000000e+00    
           1.30857652e-05     3.53042153e-04     0.00000000e+00    
           1.35688197e-05     3.52080213e-04     0.00000000e+00    
           1.40268421e-05     3.50957183e-04     0.00000000e+00    
           1.41302362e-05     3.50573624e-04     0.00000000e+00    
           1.36363378e-05     3.51425610e-04     0.00000000e+00    
           1.30841618e-05     3.53431999e-04     0.00000000e+00    
           1.25443830e-05     3.55974335e-04     0.00000000e+00    
           1.19698971e-05     3.58422723e-04     0.00000000e+00    
           1.15085895e-05     3.60729377e-04     0.00000000e+00    
           2.24884607e-05     3.82280647e-04     0.00000000e+00    
           2.38721223e-05     3.84221203e-04     0.00000000e+00    
           2.46667605e-05     3.86059430e-04     0.00000000e+00    
           2.48840079e-05     3.87534557e-04     0.00000000e+00    
           2.48302968e-05     3.88737215e-04     0.00000000e+00    
           2.45452356e-05     3.89620429e-04     0.00000000e+00    
           2.41678990e-05     3.90081492e-04     0.00000000e+00    
           2.37135009e-05     3.90088564e-04     0.00000000e+00    
           2.30834194e-05     3.89710593e-04     0.00000000e+00    
           2.22823073e-05     3.88976681e-04     0.00000000e+00    
           2.03165237e-05     3.86319472e-04     0.00000000e+00    
           1.95156717e-05     3.84272193e-04     0.00000000e+00    
           1.90193732e-05     3.81896272e-04     0.00000000e+00    
           1.89767616e-05     3.79205303e-04     0.00000000e+00    
           1.90323226e-05     3.76531418e-04     0.00000000e+00    
           1.93746982e-05     3.74557305e-04     0.00000000e+00    
           1.96156725e-05     3.74249183e-04     0.00000000e+00    
           1.98583493e-05     3.75386240e-04     0.00000000e+00    
           2.01087787e-05     3.77276243e-04     0.00000000e+00    
           2.04044245e-05     3.78935219e-04     0.00000000e+00    
           1.72941873e-05     1.64123805e-04     0.00000000e+00    
           1.48457266e-05     1.64477649e-04     0.00000000e+00    
           1.25565557e-05     1.64495636e-04     0.00000000e+00    
           1.05957542e-05     1.64626108e-04     0.00000000e+00    
           9.24133565e-06     1.64840909e-04     0.00000000e+00    
           8.11736027e-06     1.63122138e-04     0.00000000e+00    
           7.82831194e-06     1.59113421e-04     0.00000000e+00    
           8.30264344e-06     1.54139445e-04     0.00000000e+00    
           9.55643191e-06     1.49739120e-04     0.00000000e+00    
           1.16350320e-05     1.45916376e-04     0.00000000e+00    
           1.43967745e-05     1.42735124e-04     0.00000000e+00    
           2.06901514e-05     1.39585711e-04     0.00000000e+00    
           2.35772932e-05     1.39897413e-04     0.00000000e+00    
           2.59391491e-05     1.41049677e-04     0.00000000e+00    
           2.74025497e-05     1.42597608e-04     0.00000000e+00    
           2.82744204e-05     1.44677470e-04     0.00000000e+00    
           2.85240112e-05     1.47302970e-04     0.00000000e+00    
           2.82124711e-05     1.50190186e-04     0.00000000e+00    
           2.73481382e-05     1.53232715e-04     0.00000000e+00    
           2.59623448e-05     1.56329625e-04     0.00000000e+00    
           2.41052476e-05     1.59119198e-04     0.00000000e+00    
           2.19157464e-05     1.61483127e-04     0.00000000e+00    
           2.11209608e-05     7.33973429e-05     0.00000000e+00    
           2.13853691e-05     7.19964155e-05     0.00000000e+00    
           2.18309160e-05     7.05456623e-05     0.00000000e+00    
           2.24000669e-05     6.90468005e-05     0.00000000e+00    
           2.27981545e-05     6.85394771e-05     0.00000000e+00    
           2.28332010e-05     6.96879360e-05     0.00000000e+00    
           2.26824268e-05     7.21850301e-05     0.00000000e+00    
           2.20555849e-05     7.52784617e-05     0.00000000e+00    
           2.10712824e-05     7.75424633e-05     0.00000000e+00    
           1.95564571e-05     8.05021700e-05     0.00000000e+00    
           1.97175123e-05     8.22806032e-05     0.00000000e+00    
           2.00705035e-05     8.44670722e-05     0.00000000e+00    
           2.01557577e-05     8.64533431e-05     0.00000000e+00    
           2.05075357e-05     8.78204664e-05     0.00000000e+00    
           2.06693585e-05     8.80621374e-05     0.00000000e+00    
           2.07496505e-05     8.71239172e-05     0.00000000e+00    
           2.06748955e-05     8.55014223e-05     0.00000000e+00    
           2.06036602e-05     8.37515909e-05     0.00000000e+00    
           2.06020977e-05     7.99625996e-05     0.00000000e+00    
           2.07104385e-05     7.80950286e-05     0.00000000e+00    
           2.06878649e-05     7.64134238e-05     0.00000000e+00    
           2.05101423e-05     7.53390559e-05     0.00000000e+00    
           8.94536697e-06     2.19815833e-04     0.00000000e+00    
           7.79629499e-06     2.20238595e-04     0.00000000e+00    
           7.05845923e-06     2.20189744e-04     0.00000000e+00    
           6.73379964e-06     2.20265792e-04     0.00000000e+00    
           6.29750957e-06     2.20421702e-04     0.00000000e+00    
           5.99858458e-06     2.20392278e-04     0.00000000e+00    
           6.11703263e-06     2.19969312e-04     0.00000000e+00    
           6.80607400e-06     2.18434638e-04     0.00000000e+00    
           7.93877189e-06     2.16033237e-04     0.00000000e+00    
           9.05394063e-06     2.13762250e-04     0.00000000e+00    
           1.00510124e-05     2.11634193e-04     0.00000000e+00    
           1.18124226e-05     2.07573568e-04     0.00000000e+00    
           1.27548547e-05     2.05479213e-04     0.00000000e+00    
           1.36532744e-05     2.03667470e-04     0.00000000e+00    
           1.41863111e-05     2.02331954e-04     0.00000000e+00    
           1.45296281e-05     2.01708812e-04     0.00000000e+00    
           1.46124794e-05     2.02391369e-04     0.00000000e+00    
           1.46414459e-05     2.04380252e-04     0.00000000e+00    
           1.47398041e-05     2.06978933e-04     0.00000000e+00    
           1.43762481e-05     2.09735706e-04     0.00000000e+00    