<?xml version="1.0"?>
<VTKFile type="UnstructuredGrid" version="0.1">
  <UnstructuredGrid>
    <Piece NumberOfPoints="1034" NumberOfCells="1614">
      <Points>
        <DataArray type="Float32" NumberOfComponents="3">
           5.21582007e-01     5.11657000e-01     0.00000000e+00    
           5.07319987e-01     5.11657000e-01     0.00000000e+00    
           4.65243995e-01     5.17907977e-01     0.00000000e+00    
           4.65243995e-01     5.04921973e-01     0.00000000e+00    
           4.75246996e-01     5.11415005e-01     0.00000000e+00    
           5.33852994e-01     5.04921973e-01     0.00000000e+00    
           5.33852994e-01     5.17907977e-01     0.00000000e+00    
           4.83779997e-01     5.34618974e-01     0.00000000e+00    
           4.68984991e-01     5.34618974e-01     0.00000000e+00    
           4.76381987e-01     5.23841977e-01     0.00000000e+00    
           4.68984991e-01     4.66010004e-01     0.00000000e+00    
           4.83779997e-01     4.66010004e-01     0.00000000e+00    
           4.99920011e-01     5.34618974e-01     0.00000000e+00    
           4.89203990e-01     5.34618974e-01     0.00000000e+00    
           4.94562000e-01     5.22280991e-01     0.00000000e+00    
           4.89203990e-01     4.66010004e-01     0.00000000e+00    
           4.99920011e-01     4.66010004e-01     0.00000000e+00    
           5.32517016e-01     4.74112004e-01     0.00000000e+00    
           5.17961025e-01     4.74112004e-01     0.00000000e+00    
           5.33852994e-01     5.19801974e-01     0.00000000e+00    
           5.33852994e-01     5.29603004e-01     0.00000000e+00    
           5.19536972e-01     5.24702013e-01     0.00000000e+00    
           4.65243995e-01     5.29603004e-01     0.00000000e+00    
           4.65243995e-01     5.19801974e-01     0.00000000e+00    
           4.92487997e-01     5.17117977e-01     0.00000000e+00    
           4.76904988e-01     5.17117977e-01     0.00000000e+00    
           5.17996013e-01     5.27033985e-01     0.00000000e+00    
           5.04473984e-01     5.27033985e-01     0.00000000e+00    
           5.08446991e-01     4.83435005e-01     0.00000000e+00    
           4.94414002e-01     4.83435005e-01     0.00000000e+00    
           4.65243995e-01     4.83101994e-01     0.00000000e+00    
           4.65243995e-01     4.74415004e-01     0.00000000e+00    
           4.78336990e-01     4.78758007e-01     0.00000000e+00    
           5.33852994e-01     4.74415004e-01     0.00000000e+00    
           5.33852994e-01     4.83101994e-01     0.00000000e+00    
           4.80668008e-01     4.95810986e-01     0.00000000e+00    
           4.66084987e-01     4.95810986e-01     0.00000000e+00    
           4.93930012e-01     4.79214013e-01     0.00000000e+00    
           4.78967011e-01     4.79214013e-01     0.00000000e+00    
           5.09284973e-01     4.97658014e-01     0.00000000e+00    
           4.95503992e-01     4.97658014e-01     0.00000000e+00    
           5.33011973e-01     5.01751006e-01     0.00000000e+00    
           5.17829001e-01     5.01751006e-01     0.00000000e+00    
           4.95451003e-01     5.00564992e-01     0.00000000e+00    
           4.80922014e-01     5.00564992e-01     0.00000000e+00    
           5.25367022e-01     4.88312006e-01     0.00000000e+00    
           5.09521008e-01     4.88312006e-01     0.00000000e+00    
           4.65243995e-01     5.34618974e-01     0.00000000e+00    
           4.65243995e-01     4.66010004e-01     0.00000000e+00    
           5.33852994e-01     4.66010004e-01     0.00000000e+00    
           5.33852994e-01     5.34618974e-01     0.00000000e+00    
           5.21338999e-01     5.13502657e-01     0.00000000e+00    
           5.20626605e-01     5.15222490e-01     0.00000000e+00    
           5.19493401e-01     5.16699374e-01     0.00000000e+00    
           5.18016517e-01     5.17832637e-01     0.00000000e+00    
           5.16296625e-01     5.18545032e-01     0.00000000e+00    
           5.14451027e-01     5.18787980e-01     0.00000000e+00    
           5.12605369e-01     5.18545032e-01     0.00000000e+00    
           5.10885477e-01     5.17832637e-01     0.00000000e+00    
           5.09408593e-01     5.16699374e-01     0.00000000e+00    
           5.08275390e-01     5.15222490e-01     0.00000000e+00    
           5.07562995e-01     5.13502657e-01     0.00000000e+00    
           5.07562995e-01     5.09811342e-01     0.00000000e+00    
           5.08275390e-01     5.08091509e-01     0.00000000e+00    
           5.09408593e-01     5.06614625e-01     0.00000000e+00    
           5.10885477e-01     5.05481362e-01     0.00000000e+00    
           5.12605369e-01     5.04768968e-01     0.00000000e+00    
           5.14451027e-01     5.04526019e-01     0.00000000e+00    
           5.16296625e-01     5.04768968e-01     0.00000000e+00    
           5.18016517e-01     5.05481362e-01     0.00000000e+00    
           5.19493401e-01     5.06614625e-01     0.00000000e+00    
           5.20626605e-01     5.08091509e-01     0.00000000e+00    
           5.21338999e-01     5.09811342e-01     0.00000000e+00    
           4.66931671e-01     5.04409373e-01     0.00000000e+00    
           4.68693614e-01     5.04328012e-01     0.00000000e+00    
           4.70421344e-01     5.04682958e-01     0.00000000e+00    
           4.72008497e-01     5.05452335e-01     0.00000000e+00    
           4.73357379e-01     5.06588817e-01     0.00000000e+00    
           4.74384934e-01     5.08022368e-01     0.00000000e+00    
           4.75027919e-01     5.09664834e-01     0.00000000e+00    
           4.75028187e-01     5.13165236e-01     0.00000000e+00    
           4.74385172e-01     5.14807761e-01     0.00000000e+00    
           4.73357558e-01     5.16241372e-01     0.00000000e+00    
           4.72008646e-01     5.17377913e-01     0.00000000e+00    
           4.70421433e-01     5.18147290e-01     0.00000000e+00    
           4.68693614e-01     5.18502235e-01     0.00000000e+00    
           4.66931641e-01     5.18420875e-01     0.00000000e+00    
           5.32303810e-01     5.16964078e-01     0.00000000e+00    
           5.31043947e-01     5.15658796e-01     0.00000000e+00    
           5.30155540e-01     5.14077127e-01     0.00000000e+00    
           5.29696345e-01     5.12322068e-01     0.00000000e+00    
           5.29696345e-01     5.10507941e-01     0.00000000e+00    
           5.30155540e-01     5.08752882e-01     0.00000000e+00    
           5.31043947e-01     5.07171214e-01     0.00000000e+00    
           5.32303810e-01     5.05865932e-01     0.00000000e+00    
           4.68517244e-01     5.32760799e-01     0.00000000e+00    
           4.68509018e-01     5.30844629e-01     0.00000000e+00    
           4.68960851e-01     5.28982460e-01     0.00000000e+00    
           4.69846308e-01     5.27283132e-01     0.00000000e+00    
           4.71113682e-01     5.25845945e-01     0.00000000e+00    
           4.72688884e-01     5.24754822e-01     0.00000000e+00    
           4.74479854e-01     5.24073541e-01     0.00000000e+00    
           4.78284091e-01     5.24073601e-01     0.00000000e+00    
           4.80075032e-01     5.24754822e-01     0.00000000e+00    
           4.81650203e-01     5.25845885e-01     0.00000000e+00    
           4.82917547e-01     5.27283013e-01     0.00000000e+00    
           4.83803004e-01     5.28982282e-01     0.00000000e+00    
           4.84254897e-01     5.30844331e-01     0.00000000e+00    
           4.84246761e-01     5.32760441e-01     0.00000000e+00    
           4.82887864e-01     4.67691004e-01     0.00000000e+00    
           4.81620818e-01     4.69110936e-01     0.00000000e+00    
           4.80051905e-01     4.70188022e-01     0.00000000e+00    
           4.78271484e-01     4.70860153e-01     0.00000000e+00    
           4.76382166e-01     4.71088618e-01     0.00000000e+00    
           4.74492878e-01     4.70860243e-01     0.00000000e+00    
           4.72712427e-01     4.70188200e-01     0.00000000e+00    
           4.71143454e-01     4.69111174e-01     0.00000000e+00    
           4.69876349e-01     4.67691302e-01     0.00000000e+00    
           4.88103986e-01     5.33086061e-01     0.00000000e+00    
           4.87431526e-01     5.31323195e-01     0.00000000e+00    
           4.87231195e-01     5.29447019e-01     0.00000000e+00    
           4.87516224e-01     5.27581930e-01     0.00000000e+00    
           4.88267750e-01     5.25851250e-01     0.00000000e+00    
           4.89436030e-01     5.24369657e-01     0.00000000e+00    
           4.90943670e-01     5.23235261e-01     0.00000000e+00    
           4.92690891e-01     5.22523046e-01     0.00000000e+00    
           4.96432930e-01     5.22523701e-01     0.00000000e+00    
           4.98180002e-01     5.23235798e-01     0.00000000e+00    
           4.99687493e-01     5.24370134e-01     0.00000000e+00    
           5.00855684e-01     5.25851607e-01     0.00000000e+00    
           5.01607120e-01     5.27582109e-01     0.00000000e+00    
           5.01892149e-01     5.29447079e-01     0.00000000e+00    
           5.01691818e-01     5.31323016e-01     0.00000000e+00    
           5.01019418e-01     5.33085763e-01     0.00000000e+00    
           4.98371124e-01     4.67269689e-01     0.00000000e+00    
           4.96539861e-01     4.68064904e-01     0.00000000e+00    
           4.94562000e-01     4.68336672e-01     0.00000000e+00    
           4.92584139e-01     4.68064904e-01     0.00000000e+00    
           4.90752876e-01     4.67269689e-01     0.00000000e+00    
           5.32269001e-01     4.75995690e-01     0.00000000e+00    
           5.31541944e-01     4.77750987e-01     0.00000000e+00    
           5.30385315e-01     4.79258329e-01     0.00000000e+00    
           5.28877974e-01     4.80414927e-01     0.00000000e+00    
[...]
      <PointData>
        <DataArray type="Float32" Name="Displacement" NumberOfComponents="3">
           5.37518135e-05     7.70554936e-04     0.00000000e+00    
           4.73629370e-05     7.78715417e-04     0.00000000e+00    
           1.91805175e-05     7.82978954e-04     0.00000000e+00    
           4.42411038e-05     7.61315867e-04     0.00000000e+00    
           3.68657784e-05     7.93770480e-04     0.00000000e+00    
           4.42411038e-05     7.61315867e-04     0.00000000e+00    
           1.91805175e-05     7.82978954e-04     0.00000000e+00    
           3.84539671e-05     1.14584644e-03     0.00000000e+00    
           3.26919799e-05     1.12829998e-03     0.00000000e+00    
           4.92752733e-05     1.11925998e-03     0.00000000e+00    
           3.26919799e-05    -2.17000725e-05     0.00000000e+00    
           3.84539671e-05    -4.15350951e-06     0.00000000e+00    
           3.97312069e-05     1.09004695e-03     0.00000000e+00    
           3.64659463e-05     1.10663660e-03     0.00000000e+00    
           1.81392861e-05     1.07959646e-03     0.00000000e+00    
           3.64659463e-05    -4.33633504e-05     0.00000000e+00    
           3.97312069e-05    -5.99531013e-05     0.00000000e+00    
           3.21052139e-05     1.64368001e-04     0.00000000e+00    
           2.67555170e-05     1.64902056e-04     0.00000000e+00    
           6.19682833e-05     9.70142602e-04     0.00000000e+00    
           4.99777743e-05     9.88270622e-04     0.00000000e+00    
           5.36311491e-05     9.66217660e-04     0.00000000e+00    
           4.99777743e-05     9.88270622e-04     0.00000000e+00    
           6.19682833e-05     9.70142602e-04     0.00000000e+00    
           4.00726385e-05     9.35772434e-04     0.00000000e+00    
           3.43935826e-05     9.03385400e-04     0.00000000e+00    
           5.22376067e-05     9.92971705e-04     0.00000000e+00    
           5.03470619e-05     1.02450186e-03     0.00000000e+00    
           4.78985567e-05     3.86417145e-04     0.00000000e+00    
           4.24060854e-05     3.32089461e-04     0.00000000e+00    
           3.28266506e-05     2.03796735e-04     0.00000000e+00    
           4.31751650e-05     1.90125342e-04     0.00000000e+00    
           4.00362405e-05     2.12662490e-04     0.00000000e+00    
           4.31751650e-05     1.90125342e-04     0.00000000e+00    
           3.28266506e-05     2.03796735e-04     0.00000000e+00    
           3.23441200e-05     5.51595178e-04     0.00000000e+00    
           2.89065229e-05     5.62556961e-04     0.00000000e+00    
           4.80359340e-05     2.75389757e-04     0.00000000e+00    
           4.41829397e-05     2.17363646e-04     0.00000000e+00    
           5.17056251e-05     5.12447790e-04     0.00000000e+00    
           4.49799627e-05     5.43958333e-04     0.00000000e+00    
           3.92413785e-05     6.64110412e-04     0.00000000e+00    
           3.15626494e-05     6.73224509e-04     0.00000000e+00    
           4.32559245e-05     5.69513941e-04     0.00000000e+00    
           3.80763813e-05     5.96346857e-04     0.00000000e+00    
           7.49752435e-05     4.24761325e-04     0.00000000e+00    
           6.77038915e-05     4.25858278e-04     0.00000000e+00    
           0.00000000e+00     1.15000003e-03     0.00000000e+00    
           0.00000000e+00     0.00000000e+00     0.00000000e+00    
           0.00000000e+00     0.00000000e+00     0.00000000e+00    
           0.00000000e+00     1.15000003e-03     0.00000000e+00    
           5.45158873e-05     7.75263528e-04     0.00000000e+00    
           5.52819074e-05     7.78700341e-04     0.00000000e+00    
           5.54413782e-05     7.81776209e-04     0.00000000e+00    
           5.49591641e-05     7.84111558e-04     0.00000000e+00    
           5.41811241e-05     7.85871584e-04     0.00000000e+00    
           5.34692554e-05     7.87148834e-04     0.00000000e+00    
           5.28873243e-05     7.87752739e-04     0.00000000e+00    
           5.23417584e-05     7.87636905e-04     0.00000000e+00    
           5.16128166e-05     7.86842022e-04     0.00000000e+00    
           5.00238020e-05     7.84731586e-04     0.00000000e+00    
           4.86057106e-05     7.82004907e-04     0.00000000e+00    
           4.64410805e-05     7.75025517e-04     0.00000000e+00    
           4.59368566e-05     7.72125321e-04     0.00000000e+00    
           4.54646542e-05     7.69750332e-04     0.00000000e+00    
           4.50824919e-05     7.68033555e-04     0.00000000e+00    
           4.50521802e-05     7.66630168e-04     0.00000000e+00    
           4.53163229e-05     7.65541685e-04     0.00000000e+00    
           4.63201141e-05     7.64370430e-04     0.00000000e+00    
           4.76623973e-05     7.63374905e-04     0.00000000e+00    
           4.94982014e-05     7.63573917e-04     0.00000000e+00    
           5.05829448e-05     7.64559081e-04     0.00000000e+00    
           5.19166133e-05     7.66783021e-04     0.00000000e+00    
           4.71057901e-05     7.64010183e-04     0.00000000e+00    
           4.85230630e-05     7.67643156e-04     0.00000000e+00    
           4.84924167e-05     7.71696097e-04     0.00000000e+00    
           4.74261724e-05     7.76034140e-04     0.00000000e+00    
           4.57701535e-05     7.80625676e-04     0.00000000e+00    
           4.36384180e-05     7.85188284e-04     0.00000000e+00    
           4.06923937e-05     7.90013932e-04     0.00000000e+00    
           3.23061831e-05     7.96391570e-04     0.00000000e+00    
           2.81636876e-05     7.97022949e-04     0.00000000e+00    
           2.47470998e-05     7.96668697e-04     0.00000000e+00    
           2.23191437e-05     7.95186497e-04     0.00000000e+00    
           2.05710930e-05     7.92992651e-04     0.00000000e+00    
           1.93227661e-05     7.90172140e-04     0.00000000e+00    
           1.86995076e-05     7.86780613e-04     0.00000000e+00    
           2.06671521e-05     7.78793299e-04     0.00000000e+00    
           2.32492112e-05     7.74759334e-04     0.00000000e+00    
           2.58764612e-05     7.70132116e-04     0.00000000e+00    
           2.87272851e-05     7.65691977e-04     0.00000000e+00    
           3.24149478e-05     7.61314819e-04     0.00000000e+00    
           3.58397228e-05     7.58893497e-04     0.00000000e+00    
           3.84943487e-05     7.58666079e-04     0.00000000e+00    
           4.13236121e-05     7.59400369e-04     0.00000000e+00    
           3.45299086e-05     1.12372346e-03     0.00000000e+00    
           3.76700737e-05     1.11978571e-03     0.00000000e+00    
           4.14377573e-05     1.11725600e-03     0.00000000e+00    
           4.43554345e-05     1.11612631e-03     0.00000000e+00    
           4.63020442e-05     1.11598964e-03     0.00000000e+00    
           4.76002351e-05     1.11655472e-03     0.00000000e+00    
           4.84984885e-05     1.11755729e-03     0.00000000e+00    
           4.96721004e-05     1.12159201e-03     0.00000000e+00    
           4.91509891e-05     1.12458540e-03     0.00000000e+00    
           4.75702327e-05     1.12782989e-03     0.00000000e+00    
           4.49562649e-05     1.13088929e-03     0.00000000e+00    
           4.23643396e-05     1.13480573e-03     0.00000000e+00    
           4.06177787e-05     1.13892939e-03     0.00000000e+00    
           3.95437128e-05     1.14245235e-03     0.00000000e+00    
           3.71962014e-05    -2.03678837e-06     0.00000000e+00    
           3.56001474e-05    -9.79515335e-07     0.00000000e+00    
           3.38996069e-05    -1.02648517e-06     0.00000000e+00    
           3.19538631e-05    -1.92057269e-06     0.00000000e+00    
           3.03939723e-05    -3.89329762e-06     0.00000000e+00    
           2.95758819e-05    -6.46155922e-06     0.00000000e+00    
           2.96684266e-05    -9.71809641e-06     0.00000000e+00    
           3.05740541e-05    -1.33964577e-05     0.00000000e+00    
           3.13538367e-05    -1.74215656e-05     0.00000000e+00    
           3.42540152e-05     1.10563869e-03     0.00000000e+00    
           3.16076294e-05     1.10327767e-03     0.00000000e+00    
           2.82898291e-05     1.09998602e-03     0.00000000e+00    
           2.41955931e-05     1.09530578e-03     0.00000000e+00    
           2.12051764e-05     1.09148503e-03     0.00000000e+00    
           1.86476555e-05     1.08807441e-03     0.00000000e+00    
           1.73481785e-05     1.08458567e-03     0.00000000e+00    
           1.72202399e-05     1.08163361e-03     0.00000000e+00    
           1.93555625e-05     1.07785861e-03     0.00000000e+00    
           2.08215442e-05     1.07645628e-03     0.00000000e+00    
           2.27120781e-05     1.07570027e-03     0.00000000e+00    
           2.50199591e-05     1.07566256e-03     0.00000000e+00    
           2.79996566e-05     1.07640494e-03     0.00000000e+00    
           3.14830068e-05     1.07815815e-03     0.00000000e+00    
           3.49963557e-05     1.08146633e-03     0.00000000e+00    
           3.77258330e-05     1.08549639e-03     0.00000000e+00    
           4.09509848e-05    -5.54998915e-05     0.00000000e+00    
           4.13704074e-05    -5.13852319e-05     0.00000000e+00    
           4.09588174e-05    -4.79151022e-05     0.00000000e+00    
           3.98022785e-05    -4.53364482e-05     0.00000000e+00    
           3.82701000e-05    -4.37467861e-05     0.00000000e+00    
           3.16641199e-05     1.66939324e-04     0.00000000e+00    
           3.08032977e-05     1.68386367e-04     0.00000000e+00    
           3.00921201e-05     1.70237370e-04     0.00000000e+00    
           2.98763989e-05     1.72212749e-04     0.00000000e+00    
           2.95419013e-05     1.74148750e-04     0.00000000e+00    
           2.88150459e-05     1.75079578e-04     0.00000000e+00    
           2.85296683e-05     1.75592693e-04     0.00000000e+00    
           2.80798704e-05     1.75114765e-04     0.00000000e+00    
           2.80929708e-05     1.74057437e-04     0.00000000e+00    
           2.79526466e-05     1.72243177e-04     0.00000000e+00    
           2.70761557e-05     1.69311941e-04     0.00000000e+00    
           2.66154548e-05     1.61167496e-04     0.00000000e+00    
           2.72957368e-05     1.57420640e-04     0.00000000e+00    
           2.82119217e-05     1.54940746e-04     0.00000000e+00    
           2.88944011e-05     1.53359142e-04     0.00000000e+00    
           2.93222820e-05     1.52423847e-04     0.00000000e+00    
           2.97143379e-05     1.51996574e-04     0.00000000e+00    
           3.00646007e-05     1.52129331e-04     0.00000000e+00    
           3.02534318e-05     1.53129222e-04     0.00000000e+00    
           3.10271389e-05     1.54746274e-04     0.00000000e+00    
           3.18614366e-05     1.57476010e-04     0.00000000e+00    
           3.22966080e-05     1.60699405e-04     0.00000000e+00    
           4.81542957e-05     9.88473068e-04     0.00000000e+00    
           4.69748593e-05     9.88109852e-04     0.00000000e+00    
           4.62718235e-05     9.86985047e-04     0.00000000e+00    
           4.64117184e-05     9.85131599e-04     0.00000000e+00    
           4.72619831e-05     9.82656959e-04     0.00000000e+00    
           4.83636286e-05     9.79860895e-04     0.00000000e+00    
           4.96438915e-05     9.76320822e-04     0.00000000e+00    
           5.15251013e-05     9.72534064e-04     0.00000000e+00    
           5.31342994e-05     9.69238637e-04     0.00000000e+00    
           5.38171589e-05     9.62905819e-04     0.00000000e+00    
           5.43576352e-05     9.60251957e-04     0.00000000e+00    
           5.60491026e-05     9.58505669e-04     0.00000000e+00    
           5.81316854e-05     9.58148215e-04     0.00000000e+00    
           6.00388303e-05     9.58663994e-04     0.00000000e+00    
           6.17386540e-05     9.59737226e-04     0.00000000e+00    
           6.30528884e-05     9.61517915e-04     0.00000000e+00    
           6.33060190e-05     9.63647268e-04     0.00000000e+00    
           6.30200448e-05     9.66667198e-04     0.00000000e+00    
           6.10914576e-05     9.73735645e-04     0.00000000e+00    
           5.97431899e-05     9.77833988e-04     0.00000000e+00    
           5.78343715e-05     9.81876510e-04     0.00000000e+00    
           5.49714387e-05     9.85399471e-04     0.00000000e+00    
           5.21569345e-05     9.87315318e-04     0.00000000e+00    
           3.65137676e-05     9.39358259e-04     0.00000000e+00    
           3.27822891e-05     9.41778417e-04     0.00000000e+00    
           2.99307285e-05     9.41711187e-04     0.00000000e+00    
           2.73813857e-05     9.40636266e-04     0.00000000e+00    
           2.48818760e-05     9.38540616e-04     0.00000000e+00    
           2.25329386e-05     9.35424818e-04     0.00000000e+00    
           2.12025971e-05     9.31601040e-04     0.00000000e+00    
           2.10028520e-05     9.27142741e-04     0.00000000e+00    
           2.21307801e-05     9.22409119e-04     0.00000000e+00    
           2.46480759e-05     9.17846046e-04     0.00000000e+00    
           2.71723202e-05     9.13009164e-04     0.00000000e+00    
           3.04838832e-05     9.07501322e-04     0.00000000e+00    
           3.89537163e-05     9.00276413e-04     0.00000000e+00    
           4.35522088e-05     8.99071922e-04     0.00000000e+00    
           4.74515582e-05     8.99190025e-04     0.00000000e+00    
           5.05866192e-05     9.00435785e-04     0.00000000e+00    
           5.27766606e-05     9.02708329e-04     0.00000000e+00    
           5.40710062e-05     9.05785884e-04     0.00000000e+00    
           5.44111172e-05     9.09661525e-04     0.00000000e+00    
           5.34402388e-05     9.13930300e-04     0.00000000e+00    
           5.15454740e-05     9.18465608e-04     0.00000000e+00    
           4.89481899e-05     9.22890787e-04     0.00000000e+00    
           4.61691416e-05     9.27291345e-04     0.00000000e+00    
           4.32911766e-05     9.31662566e-04     0.00000000e+00    
           5.70502089e-05     9.96845774e-04     0.00000000e+00    
           6.15855461e-05     1.00169866e-03     0.00000000e+00    
           6.46253320e-05     1.00683689e-03     0.00000000e+00    
           6.61013619e-05     1.01175834e-03     0.00000000e+00    
           6.63928731e-05     1.01640658e-03     0.00000000e+00    
           6.55837212e-05     1.02050486e-03     0.00000000e+00    
           6.39519494e-05     1.02373259e-03     0.00000000e+00    
           6.15786412e-05     1.02586334e-03     0.00000000e+00    
           5.83812835e-05     1.02672819e-03     0.00000000e+00    
           5.45672337e-05     1.02625310e-03     0.00000000e+00    
           4.60993360e-05     1.02083792e-03     0.00000000e+00    
           4.27595514e-05     1.01608853e-03     0.00000000e+00    
           4.03767990e-05     1.01065473e-03     0.00000000e+00    
           3.92178736e-05     1.00489485e-03     0.00000000e+00    
           3.84327650e-05     9.99599928e-04     0.00000000e+00    
           3.87352738e-05     9.95102455e-04     0.00000000e+00    
           3.99448618e-05     9.91609646e-04     0.00000000e+00    
           4.20815741e-05     9.89500899e-04     0.00000000e+00    
           4.49336403e-05     9.89585300e-04     0.00000000e+00    
           4.82010510e-05     9.90566215e-04     0.00000000e+00    
           4.18875352e-05     3.88245506e-04     0.00000000e+00    
           3.55820303e-05     3.88065557e-04     0.00000000e+00    
           2.97872029e-05     3.86406493e-04     0.00000000e+00    
           2.52801037e-05     3.83226405e-04     0.00000000e+00    
           2.23039751e-05     3.78229684e-04     0.00000000e+00    
           2.06909244e-05     3.71933158e-04     0.00000000e+00    
           2.07968333e-05     3.64801963e-04     0.00000000e+00    
           2.26249413e-05     3.57414188e-04     0.00000000e+00    
           2.52760365e-05     3.49784415e-04     0.00000000e+00    
           2.96624457e-05     3.42623563e-04     0.00000000e+00    
           3.54516924e-05     3.36507306e-04     0.00000000e+00    
           4.94604865e-05     3.30711948e-04     0.00000000e+00    
           5.61403140e-05     3.31615185e-04     0.00000000e+00    
           6.20008141e-05     3.34378681e-04     0.00000000e+00    
           6.61098602e-05     3.38405109e-04     0.00000000e+00    
           6.88297878e-05     3.43694992e-04     0.00000000e+00    
           6.99289012e-05     3.50086804e-04     0.00000000e+00    
           6.95067720e-05     3.56987846e-04     0.00000000e+00    
           6.75504634e-05     3.64002801e-04     0.00000000e+00    
           6.43160965e-05     3.70936788e-04     0.00000000e+00    
           5.98842526e-05     3.77152261e-04     0.00000000e+00    
           5.44113609e-05     3.82491067e-04     0.00000000e+00    
           4.55212612e-05     1.89782702e-04     0.00000000e+00    
           4.73108303e-05     1.89535727e-04     0.00000000e+00    
           4.87107536e-05     1.90310617e-04     0.00000000e+00    
           4.94988089e-05     1.92091291e-04     0.00000000e+00    
           4.96119392e-05     1.94481006e-04     0.00000000e+00    
           4.89695049e-05     1.97542526e-04     0.00000000e+00    
           4.79327537e-05     2.01114497e-04     0.00000000e+00    
           4.60164083e-05     2.05906428e-04     0.00000000e+00    
           4.31959488e-05     2.09936523e-04     0.00000000e+00    
           3.73691691e-05     2.14591724e-04     0.00000000e+00    
           3.55145312e-05     2.16575369e-04     0.00000000e+00    
           3.41078958e-05     2.18225061e-04     0.00000000e+00    
           3.25744768e-05     2.18434070e-04     0.00000000e+00    
           3.19280334e-05     2.17664012e-04     0.00000000e+00    
           3.13672899e-05     2.16032058e-04     0.00000000e+00    
           3.11723670e-05     2.13664171e-04     0.00000000e+00    
           3.14850950e-05     2.10741884e-04     0.00000000e+00    
           3.21657135e-05     2.07385630e-04     0.00000000e+00    
           3.41682826e-05     1.99618735e-04     0.00000000e+00    
           3.62279898e-05     1.95585089e-04     0.00000000e+00    
           3.86538777e-05     1.92328560e-04     0.00000000e+00    
           4.07590633e-05     1.90876948e-04     0.00000000e+00    
           3.26274167e-05     5.54973492e-04     0.00000000e+00    
           3.32557465e-05     5.57336316e-04     0.00000000e+00    
           3.41080304e-05     5.59823355e-04     0.00000000e+00    
           3.51079470e-05     5.62811969e-04     0.00000000e+00    
           3.52589814e-05     5.65696508e-04     0.00000000e+00    
           3.49891743e-05     5.67725569e-04     0.00000000e+00    
           3.45268745e-05     5.68951771e-04     0.00000000e+00    
           3.41806590e-05     5.69439668e-04     0.00000000e+00    
           3.38211794e-05     5.69103635e-04     0.00000000e+00    
           3.27008238e-05     5.67952753e-04     0.00000000e+00    
           3.09190182e-05     5.65732247e-04     0.00000000e+00    
           2.74620179e-05     5.58754895e-04     0.00000000e+00    
           2.65952112e-05     5.54567494e-04     0.00000000e+00    
           2.62788817e-05     5.50907222e-04     0.00000000e+00    
           2.55536015e-05     5.47981239e-04     0.00000000e+00    
           2.52356003e-05     5.45441115e-04     0.00000000e+00    
           2.54202296e-05     5.43374452e-04     0.00000000e+00    
           2.61984605e-05     5.42124326e-04     0.00000000e+00    
           2.76390401e-05     5.41824556e-04     0.00000000e+00    
           2.92554378e-05     5.42658905e-04     0.00000000e+00    