<?xml version="1.0"?>
<VTKFile type="UnstructuredGrid" version="0.1">
  <UnstructuredGrid>
    <Piece NumberOfPoints="1034" NumberOfCells="1614">
      <Points>
        <DataArray type="Float32" NumberOfComponents="3">
           5.21582007e-01     5.11657000e-01     0.00000000e+00    
           5.07319987e-01     5.11657000e-01     0.00000000e+00    
           4.65243995e-01     5.17907977e-01     0.00000000e+00    
           4.65243995e-01     5.04921973e-01     0.00000000e+00    
           4.75246996e-01     5.11415005e-01     0.00000000e+00    
           5.33852994e-01     5.04921973e-01     0.00000000e+00    
           5.33852994e-01     5.17907977e-01     0.00000000e+00    
           4.83779997e-01     5.34618974e-01     0.00000000e+00    
           4.68984991e-01     5.34618974e-01     0.00000000e+00    
           4.76381987e-01     5.23841977e-01     0.00000000e+00    
           4.68984991e-01     4.66010004e-01     0.00000000e+00    
           4.83779997e-01     4.66010004e-01     0.00000000e+00    
           4.99920011e-01     5.34618974e-01     0.00000000e+00    
           4.89203990e-01     5.34618974e-01     0.00000000e+00    
           4.94562000e-01     5.22280991e-01     0.00000000e+00    
           4.89203990e-01     4.66010004e-01     0.00000000e+00    
           4.99920011e-01     4.66010004e-01     0.00000000e+00    
           5.32517016e-01     4.74112004e-01     0.00000000e+00    
           5.17961025e-01     4.74112004e-01     0.00000000e+00    
           5.33852994e-01     5.19801974e-01     0.00000000e+00    
           5.33852994e-01     5.29603004e-01     0.00000000e+00    
           5.19536972e-01     5.24702013e-01     0.00000000e+00    
           4.65243995e-01     5.29603004e-01     0.00000000e+00    
           4.65243995e-01     5.19801974e-01     0.00000000e+00    
           4.92487997e-01     5.17117977e-01     0.00000000e+00    
           4.76904988e-01     5.17117977e-01     0.00000000e+00    
           5.17996013e-01     5.27033985e-01     0.00000000e+00    
           5.04473984e-01     5.27033985e-01     0.00000000e+00    
           5.08446991e-01     4.83435005e-01     0.00000000e+00    
           4.94414002e-01     4.83435005e-01     0.00000000e+00    
           4.65243995e-01     4.83101994e-01     0.00000000e+00    
           4.65243995e-01     4.74415004e-01     0.00000000e+00    
           4.78336990e-01     4.78758007e-01     0.00000000e+00    
           5.33852994e-01     4.74415004e-01     0.00000000e+00    
           5.33852994e-01     4.83101994e-01     0.00000000e+00    
           4.80668008e-01     4.95810986e-01     0.00000000e+00    
           4.66084987e-01     4.95810986e-01     0.00000000e+00    
           4.93930012e-01     4.79214013e-01     0.00000000e+00    
           4.78967011e-01     4.79214013e-01     0.00000000e+00    
           5.09284973e-01     4.97658014e-01     0.00000000e+00    
           4.95503992e-01     4.97658014e-01     0.00000000e+00    
           5.33011973e-01     5.01751006e-01     0.00000000e+00    
           5.17829001e-01     5.01751006e-01     0.00000000e+00    
           4.95451003e-01     5.00564992e-01     0.00000000e+00    
           4.80922014e-01     5.00564992e-01     0.00000000e+00    
           5.25367022e-01     4.88312006e-01     0.00000000e+00    
           5.09521008e-01     4.88312006e-01     0.00000000e+00    
           4.65243995e-01     5.34618974e-01     0.00000000e+00    
           4.65243995e-01     4.66010004e-01     0.00000000e+00    
           5.33852994e-01     4.66010004e-01     0.00000000e+00    
           5.33852994e-01     5.34618974e-01     0.00000000e+00    
           5.21338999e-01     5.13502657e-01     0.00000000e+00    
           5.20626605e-01     5.15222490e-01     0.00000000e+00    
           5.19493401e-01     5.16699374e-01     0.00000000e+00    
           5.18016517e-01     5.17832637e-01     0.00000000e+00    
           5.16296625e-01     5.18545032e-01     0.00000000e+00    
           5.14451027e-01     5.18787980e-01     0.00000000e+00    
           5.12605369e-01     5.18545032e-01     0.00000000e+00    
           5.10885477e-01     5.17832637e-01     0.00000000e+00    
           5.09408593e-01     5.16699374e-01     0.00000000e+00    
           5.08275390e-01     5.15222490e-01     0.00000000e+00    
           5.07562995e-01     5.13502657e-01     0.00000000e+00    
           5.07562995e-01     5.09811342e-01     0.00000000e+00    
           5.08275390e-01     5.08091509e-01     0.00000000e+00    
           5.09408593e-01     5.06614625e-01     0.00000000e+00    
           5.10885477e-01     5.05481362e-01     0.00000000e+00    
           5.12605369e-01     5.04768968e-01     0.00000000e+00    
           5.14451027e-01     5.04526019e-01     0.00000000e+00    
           5.16296625e-01     5.04768968e-01     0.00000000e+00    
           5.18016517e-01     5.05481362e-01     0.00000000e+00    
           5.19493401e-01     5.06614625e-01     0.00000000e+00    
           5.20626605e-01     5.08091509e-01     0.00000000e+00    
           5.21338999e-01     5.09811342e-01     0.00000000e+00    
           4.66931671e-01     5.04409373e-01     0.00000000e+00    
           4.68693614e-01     5.04328012e-01     0.00000000e+00    
           4.70421344e-01     5.04682958e-01     0.00000000e+00    
           4.72008497e-01     5.05452335e-01     0.00000000e+00    
           4.73357379e-01     5.06588817e-01     0.00000000e+00    
           4.74384934e-01     5.08022368e-01     0.00000000e+00    
           4.75027919e-01     5.09664834e-01     0.00000000e+00    
           4.75028187e-01     5.13165236e-01     0.00000000e+00    
           4.74385172e-01     5.14807761e-01     0.00000000e+00    
           4.73357558e-01     5.16241372e-01     0.00000000e+00    
           4.72008646e-01     5.17377913e-01     0.00000000e+00    
           4.70421433e-01     5.18147290e-01     0.00000000e+00    
           4.68693614e-01     5.18502235e-01     0.00000000e+00    
           4.66931641e-01     5.18420875e-01     0.00000000e+00    
           5.32303810e-01     5.16964078e-01     0.00000000e+00    
           5.31043947e-01     5.15658796e-01     0.00000000e+00    
           5.30155540e-01     5.14077127e-01     0.00000000e+00    
           5.29696345e-01     5.12322068e-01     0.00000000e+00    
           5.29696345e-01     5.10507941e-01     0.00000000e+00    
           5.30155540e-01     5.08752882e-01     0.00000000e+00    
           5.31043947e-01     5.07171214e-01     0.00000000e+00    
           5.32303810e-01     5.05865932e-01     0.00000000e+00    
           4.68517244e-01     5.32760799e-01     0.00000000e+00    
           4.68509018e-01     5.30844629e-01     0.00000000e+00    
           4.68960851e-01     5.28982460e-01     0.00000000e+00    
           4.69846308e-01     5.27283132e-01     0.00000000e+00    
           4.71113682e-01     5.25845945e-01     0.00000000e+00    
           4.72688884e-01     5.24754822e-01     0.00000000e+00    
           4.74479854e-01     5.24073541e-01     0.00000000e+00    
           4.78284091e-01     5.24073601e-01     0.00000000e+00    
           4.80075032e-01     5.24754822e-01     0.00000000e+00    
           4.81650203e-01     5.25845885e-01     0.00000000e+00    
           4.82917547e-01     5.27283013e-01     0.00000000e+00    
           4.83803004e-01     5.28982282e-01     0.00000000e+00    
           4.84254897e-01     5.30844331e-01     0.00000000e+00    
           4.84246761e-01     5.32760441e-01     0.00000000e+00    
           4.82887864e-01     4.67691004e-01     0.00000000e+00    
           4.81620818e-01     4.69110936e-01     0.00000000e+00    
           4.80051905e-01     4.70188022e-01     0.00000000e+00    
           4.78271484e-01     4.70860153e-01     0.00000000e+00    
           4.76382166e-01     4.71088618e-01     0.00000000e+00    
           4.74492878e-01     4.70860243e-01     0.00000000e+00    
           4.72712427e-01     4.70188200e-01     0.00000000e+00    
           4.71143454e-01     4.69111174e-01     0.00000000e+00    
           4.69876349e-01     4.67691302e-01     0.00000000e+00    
           4.88103986e-01     5.33086061e-01     0.00000000e+00    
           4.87431526e-01     5.31323195e-01     0.00000000e+00    
           4.87231195e-01     5.29447019e-01     0.00000000e+00    
           4.87516224e-01     5.27581930e-01     0.00000000e+00    
           4.88267750e-01     5.25851250e-01     0.00000000e+00    
           4.89436030e-01     5.24369657e-01     0.00000000e+00    
           4.90943670e-01     5.23235261e-01     0.00000000e+00    
           4.92690891e-01     5.22523046e-01     0.00000000e+00    
           4.96432930e-01     5.22523701e-01     0.00000000e+00    
           4.98180002e-01     5.23235798e-01     0.00000000e+00    
           4.99687493e-01     5.24370134e-01     0.00000000e+00    
           5.00855684e-01     5.25851607e-01     0.00000000e+00    
           5.01607120e-01     5.27582109e-01     0.00000000e+00    
           5.01892149e-01     5.29447079e-01     0.00000000e+00    
           5.01691818e-01     5.31323016e-01     0.00000000e+00    
           5.01019418e-01     5.33085763e-01     0.00000000e+00    
           4.98371124e-01     4.67269689e-01     0.00000000e+00    
           4.96539861e-01     4.68064904e-01     0.00000000e+00    
           4.94562000e-01     4.68336672e-01     0.00000000e+00    
           4.92584139e-01     4.68064904e-01     0.00000000e+00    
           4.90752876e-01     4.67269689e-01     0.00000000e+00    
           5.32269001e-01     4.75995690e-01     0.00000000e+00    
           5.31541944e-01     4.77750987e-01     0.00000000e+00    
           5.30385315e-01     4.79258329e-01     0.00000000e+00    
           5.28877974e-01     4.80414927e-01     0.00000000e+00    
[...]
      <PointData>
        <DataArray type="Float32" Name="Displacement" NumberOfComponents="3">
           2.24723117e-05     3.40753119e-04     0.00000000e+00    
           2.04177668e-05     3.54676915e-04     0.00000000e+00    
           4.09591212e-06     3.58593883e-04     0.00000000e+00    
           1.09483954e-05     3.41295352e-04     0.00000000e+00    
           8.88647901e-06     3.56187462e-04     0.00000000e+00    
           1.09483954e-05     3.41295352e-04     0.00000000e+00    
           4.09591212e-06     3.58593883e-04     0.00000000e+00    
           2.07206831e-05     5.18031011e-04     0.00000000e+00    
           1.85907120e-05     5.23120048e-04     0.00000000e+00    
           1.70721560e-05     5.08350437e-04     0.00000000e+00    
           1.85907120e-05    -1.87997807e-06     0.00000000e+00    
           2.07206831e-05    -6.96897314e-06     0.00000000e+00    
           1.66767295e-05     4.90435457e-04     0.00000000e+00    
           1.51762606e-05     4.96187655e-04     0.00000000e+00    
           8.89063904e-06     4.81851574e-04     0.00000000e+00    
           1.51762606e-05    -2.88123338e-05     0.00000000e+00    
           1.66767295e-05    -3.45645276e-05     0.00000000e+00    
           1.56316491e-05     7.28445884e-05     0.00000000e+00    
           1.36745703e-05     8.70606891e-05     0.00000000e+00    
           2.62084377e-05     4.36878559e-04     0.00000000e+00    
           2.24652085e-05     4.51265485e-04     0.00000000e+00    
           2.49084951e-05     4.41779033e-04     0.00000000e+00    
           2.24652085e-05     4.51265485e-04     0.00000000e+00    
           2.62084377e-05     4.36878559e-04     0.00000000e+00    
           1.33482490e-05     4.24756261e-04     0.00000000e+00    
           1.16968640e-05     4.17929172e-04     0.00000000e+00    
           2.44824569e-05     4.44825913e-04     0.00000000e+00    
           2.44996700e-05     4.54047869e-04     0.00000000e+00    
           2.25054828e-05     1.88915888e-04     0.00000000e+00    
           2.02570573e-05     1.63004748e-04     0.00000000e+00    
           2.25058538e-05     9.52210321e-05     0.00000000e+00    
           2.35158241e-05     8.67208655e-05     0.00000000e+00    
           2.26090924e-05     9.30381138e-05     0.00000000e+00    
           2.35158241e-05     8.67208655e-05     0.00000000e+00    
           2.25058538e-05     9.52210321e-05     0.00000000e+00    
           1.21271678e-05     2.54368846e-04     0.00000000e+00    
           1.23351047e-05     2.46317766e-04     0.00000000e+00    
           2.50449139e-05     1.28613174e-04     0.00000000e+00    
           2.39805249e-05     9.55361829e-05     0.00000000e+00    
           1.79891194e-05     2.27724784e-04     0.00000000e+00    
           1.43423958e-05     2.47007323e-04     0.00000000e+00    
           1.41145920e-05     3.01811873e-04     0.00000000e+00    
           1.07582600e-05     2.91984587e-04     0.00000000e+00    
           1.38192008e-05     2.70259508e-04     0.00000000e+00    
           1.14193936e-05     2.89020449e-04     0.00000000e+00    
           3.94468989e-05     1.97927715e-04     0.00000000e+00    
           3.68669353e-05     1.97402682e-04     0.00000000e+00    
           0.00000000e+00     5.24999981e-04     0.00000000e+00    
           0.00000000e+00     0.00000000e+00     0.00000000e+00    
           0.00000000e+00     0.00000000e+00     0.00000000e+00    
           0.00000000e+00     5.24999981e-04     0.00000000e+00    
           2.40879035e-05     3.44008644e-04     0.00000000e+00    
           2.57512856e-05     3.46834160e-04     0.00000000e+00    
           2.69128141e-05     3.49648937e-04     0.00000000e+00    
           2.74644535e-05     3.52161209e-04     0.00000000e+00    
           2.75003385e-05     3.55016615e-04     0.00000000e+00    
           2.71404169e-05     3.57841782e-04     0.00000000e+00    
           2.67363685e-05     3.59589962e-04     0.00000000e+00    
           2.61463247e-05     3.59872764e-04     0.00000000e+00    
           2.51757610e-05     3.59202677e-04     0.00000000e+00    
           2.36876440e-05     3.57949553e-04     0.00000000e+00    
           2.21103510e-05     3.56508826e-04     0.00000000e+00    
           1.87281494e-05     3.52378906e-04     0.00000000e+00    
           1.72118180e-05     3.50154471e-04     0.00000000e+00    
           1.58571365e-05     3.47972091e-04     0.00000000e+00    
           1.47686369e-05     3.46061948e-04     0.00000000e+00    
           1.41309747e-05     3.44133237e-04     0.00000000e+00    
           1.39215335e-05     3.42108076e-04     0.00000000e+00    
           1.44057040e-05     3.39733931e-04     0.00000000e+00    
           1.56774513e-05     3.36966099e-04     0.00000000e+00    
           1.76122467e-05     3.35514953e-04     0.00000000e+00    
           1.88009508e-05     3.35876277e-04     0.00000000e+00    
           2.04124499e-05     3.37964389e-04     0.00000000e+00    
           1.23036616e-05     3.41940526e-04     0.00000000e+00    
           1.28819438e-05     3.42486805e-04     0.00000000e+00    
           1.28477632e-05     3.43458698e-04     0.00000000e+00    
           1.24849566e-05     3.45422741e-04     0.00000000e+00    
           1.19378155e-05     3.48334492e-04     0.00000000e+00    
           1.12124126e-05     3.51168943e-04     0.00000000e+00    
           1.01606765e-05     3.54002259e-04     0.00000000e+00    
           7.42526709e-06     3.57771612e-04     0.00000000e+00    
           6.21067375e-06     3.58444377e-04     0.00000000e+00    
           5.34576930e-06     3.58857826e-04     0.00000000e+00    
           4.93481548e-06     3.58902966e-04     0.00000000e+00    
           4.70320265e-06     3.58781748e-04     0.00000000e+00    
           4.50009202e-06     3.58520105e-04     0.00000000e+00    
           4.14468286e-06     3.58543679e-04     0.00000000e+00    
           4.18148602e-06     3.57392099e-04     0.00000000e+00    
           4.68360986e-06     3.55194497e-04     0.00000000e+00    
           5.24499228e-06     3.51569732e-04     0.00000000e+00    
           5.87324712e-06     3.48265079e-04     0.00000000e+00    
           6.76925265e-06     3.44889733e-04     0.00000000e+00    
           7.37845494e-06     3.42122948e-04     0.00000000e+00    
           7.81544168e-06     3.40475555e-04     0.00000000e+00    
           9.15692362e-06     3.40128579e-04     0.00000000e+00    
           1.82371496e-05     5.20585338e-04     0.00000000e+00    
           1.83642114e-05     5.18232759e-04     0.00000000e+00    
           1.86404268e-05     5.16317377e-04     0.00000000e+00    
           1.85454646e-05     5.14703512e-04     0.00000000e+00    
           1.80196712e-05     5.13172301e-04     0.00000000e+00    
           1.73971675e-05     5.11674443e-04     0.00000000e+00    
           1.69697287e-05     5.10092126e-04     0.00000000e+00    
           1.78379487e-05     5.06461889e-04     0.00000000e+00    
           1.83303237e-05     5.05768170e-04     0.00000000e+00    
           1.82511685e-05     5.06453274e-04     0.00000000e+00    
           1.79303806e-05     5.08098106e-04     0.00000000e+00    
           1.77755282e-05     5.10515354e-04     0.00000000e+00    
           1.82664953e-05     5.12925908e-04     0.00000000e+00    
           1.93888318e-05     5.15251479e-04     0.00000000e+00    
           2.19400845e-05    -4.33469813e-06     0.00000000e+00    
           2.27044402e-05    -1.84372914e-06     0.00000000e+00    
           2.28992067e-05     1.63821753e-07     0.00000000e+00    
           2.23724437e-05     1.89029811e-06     0.00000000e+00    
           2.15153268e-05     3.84635223e-06     0.00000000e+00    
           2.06862260e-05     5.25439145e-06     0.00000000e+00    
           2.01497460e-05     4.87861325e-06     0.00000000e+00    
           1.96616529e-05     3.05143158e-06     0.00000000e+00    
           1.90190658e-05     5.55747363e-07     0.00000000e+00    
           1.44427386e-05     4.94847191e-04     0.00000000e+00    
           1.34981346e-05     4.93011728e-04     0.00000000e+00    
           1.21189642e-05     4.90779174e-04     0.00000000e+00    
           1.01669830e-05     4.87742596e-04     0.00000000e+00    
           8.71628254e-06     4.84684657e-04     0.00000000e+00    
           7.68584778e-06     4.82265983e-04     0.00000000e+00    
           7.58080841e-06     4.81064926e-04     0.00000000e+00    
           8.20158584e-06     4.81329072e-04     0.00000000e+00    
           9.30206807e-06     4.81963478e-04     0.00000000e+00    
           9.67449250e-06     4.81956842e-04     0.00000000e+00    
           1.02281710e-05     4.82088770e-04     0.00000000e+00    
           1.09490466e-05     4.82426170e-04     0.00000000e+00    
           1.20144405e-05     4.82962176e-04     0.00000000e+00    
           1.33808107e-05     4.83990123e-04     0.00000000e+00    
           1.48152285e-05     4.85831202e-04     0.00000000e+00    
           1.58888197e-05     4.88010875e-04     0.00000000e+00    
           1.70899020e-05    -3.23353852e-05     0.00000000e+00    
           1.71597767e-05    -3.04528603e-05     0.00000000e+00    
           1.68932420e-05    -2.90722928e-05     0.00000000e+00    
           1.63358491e-05    -2.82230594e-05     0.00000000e+00    
           1.57461891e-05    -2.81010689e-05     0.00000000e+00    
           1.71694683e-05     7.46219084e-05     0.00000000e+00    
           1.82115309e-05     7.60595285e-05     0.00000000e+00    
           1.92394054e-05     7.81195777e-05     0.00000000e+00    
           2.03606305e-05     8.09303529e-05     0.00000000e+00    
           2.10088365e-05     8.43879534e-05     0.00000000e+00    
           2.07265366e-05     8.79903455e-05     0.00000000e+00    
           2.05051492e-05     9.17539655e-05     0.00000000e+00    
           1.95175853e-05     9.35080025e-05     0.00000000e+00    
           1.85274512e-05     9.38956800e-05     0.00000000e+00    
           1.70795465e-05     9.24808264e-05     0.00000000e+00    
           1.52696030e-05     9.01201056e-05     0.00000000e+00    
           1.20130826e-05     8.41290021e-05     0.00000000e+00    
           1.07890537e-05     8.08828918e-05     0.00000000e+00    
           9.87149269e-06     7.77933164e-05     0.00000000e+00    
           9.27639030e-06     7.47131708e-05     0.00000000e+00    
           8.94352979e-06     7.16695940e-05     0.00000000e+00    
           8.87539045e-06     6.89781373e-05     0.00000000e+00    
           9.18088062e-06     6.73809773e-05     0.00000000e+00    
           9.65860818e-06     6.71366579e-05     0.00000000e+00    
           1.09192670e-05     6.79305667e-05     0.00000000e+00    
           1.24056951e-05     6.92655667e-05     0.00000000e+00    
           1.40300144e-05     7.08601874e-05     0.00000000e+00    
           2.18806126e-05     4.52547916e-04     0.00000000e+00    
           2.14068205e-05     4.53809393e-04     0.00000000e+00    
           2.09571936e-05     4.54855588e-04     0.00000000e+00    
           2.11001334e-05     4.54990455e-04     0.00000000e+00    
           2.17451343e-05     4.53883957e-04     0.00000000e+00    
           2.21994687e-05     4.51758737e-04     0.00000000e+00    
           2.28356585e-05     4.48739273e-04     0.00000000e+00    
           2.38406446e-05     4.45921120e-04     0.00000000e+00    
           2.47536937e-05     4.43604047e-04     0.00000000e+00    
           2.44956154e-05     4.39905387e-04     0.00000000e+00    
           2.40083737e-05     4.38287767e-04     0.00000000e+00    
           2.40578374e-05     4.36949485e-04     0.00000000e+00    
           2.43896156e-05     4.36310540e-04     0.00000000e+00    
           2.47201733e-05     4.35931346e-04     0.00000000e+00    
           2.50540652e-05     4.35502443e-04     0.00000000e+00    
           2.56034491e-05     4.34896268e-04     0.00000000e+00    
           2.59273838e-05     4.33893205e-04     0.00000000e+00    
           2.62636586e-05     4.34701418e-04     0.00000000e+00    
           2.61687364e-05     4.39906871e-04     0.00000000e+00    
           2.57608972e-05     4.42984834e-04     0.00000000e+00    
           2.50935718e-05     4.45786864e-04     0.00000000e+00    
           2.40570025e-05     4.48331295e-04     0.00000000e+00    
           2.31129816e-05     4.49980493e-04     0.00000000e+00    
           1.27841595e-05     4.27387771e-04     0.00000000e+00    
           1.23490809e-05     4.30045242e-04     0.00000000e+00    
           1.21854655e-05     4.31911030e-04     0.00000000e+00    
           1.17992176e-05     4.32762550e-04     0.00000000e+00    
           1.08012564e-05     4.32338798e-04     0.00000000e+00    
           9.53049130e-06     4.31357126e-04     0.00000000e+00    
           8.83391294e-06     4.31335066e-04     0.00000000e+00    
           8.15325893e-06     4.31191438e-04     0.00000000e+00    
           8.17420732e-06     4.29827400e-04     0.00000000e+00    
           8.91105265e-06     4.27520252e-04     0.00000000e+00    
           9.50418962e-06     4.24280937e-04     0.00000000e+00    
           1.05277077e-05     4.20627766e-04     0.00000000e+00    
           1.29882483e-05     4.15684131e-04     0.00000000e+00    
           1.43251054e-05     4.14384704e-04     0.00000000e+00    
           1.53063138e-05     4.13487433e-04     0.00000000e+00    
           1.60543714e-05     4.12597001e-04     0.00000000e+00    
           1.66833343e-05     4.11759713e-04     0.00000000e+00    
           1.72237669e-05     4.10871464e-04     0.00000000e+00    
           1.72898599e-05     4.10883396e-04     0.00000000e+00    
           1.67041271e-05     4.11974936e-04     0.00000000e+00    
           1.60314194e-05     4.14103735e-04     0.00000000e+00    
           1.53527999e-05     4.16861731e-04     0.00000000e+00    
           1.46354942e-05     4.19595948e-04     0.00000000e+00    
           1.40190232e-05     4.22202604e-04     0.00000000e+00    
           2.60492998e-05     4.46802558e-04     0.00000000e+00    
           2.76909177e-05     4.49028012e-04     0.00000000e+00    
           2.86547893e-05     4.51166998e-04     0.00000000e+00    
           2.89469008e-05     4.52927809e-04     0.00000000e+00    
           2.89036434e-05     4.54400986e-04     0.00000000e+00    
           2.85691312e-05     4.55522153e-04     0.00000000e+00    
           2.80992099e-05     4.56166134e-04     0.00000000e+00    
           2.75124930e-05     4.56288486e-04     0.00000000e+00    
           2.67031319e-05     4.55947593e-04     0.00000000e+00    
           2.56880885e-05     4.55174420e-04     0.00000000e+00    
           2.32330021e-05     4.52176639e-04     0.00000000e+00    
           2.22437338e-05     4.49829735e-04     0.00000000e+00    
           2.16167609e-05     4.47105092e-04     0.00000000e+00    
           2.15267119e-05     4.44039906e-04     0.00000000e+00    
           2.15547261e-05     4.41016688e-04     0.00000000e+00    
           2.19158519e-05     4.38797055e-04     0.00000000e+00    
           2.22250965e-05     4.38296905e-04     0.00000000e+00    
           2.26028315e-05     4.39355557e-04     0.00000000e+00    
           2.30148144e-05     4.41309210e-04     0.00000000e+00    
           2.34905729e-05     4.43064026e-04     0.00000000e+00    
           1.99974347e-05     1.90007588e-04     0.00000000e+00    
           1.71920492e-05     1.90383973e-04     0.00000000e+00    
           1.45725990e-05     1.90354564e-04     0.00000000e+00    
           1.23479240e-05     1.90375358e-04     0.00000000e+00    
           1.08506802e-05     1.90206629e-04     0.00000000e+00    
           9.67062988e-06     1.88007325e-04     0.00000000e+00    
           9.37479854e-06     1.83806958e-04     0.00000000e+00    
           9.91477009e-06     1.78416332e-04     0.00000000e+00    
           1.12745320e-05     1.73501874e-04     0.00000000e+00    
           1.35834898e-05     1.69211038e-04     0.00000000e+00    
           1.66676164e-05     1.65630132e-04     0.00000000e+00    
           2.37793174e-05     1.62087454e-04     0.00000000e+00    
           2.70629389e-05     1.62437296e-04     0.00000000e+00    
           2.97719198e-05     1.63742952e-04     0.00000000e+00    
           3.14723256e-05     1.65517617e-04     0.00000000e+00    
           3.24988541e-05     1.67890874e-04     0.00000000e+00    
           3.28131537e-05     1.70879517e-04     0.00000000e+00    
           3.24840912e-05     1.74164554e-04     0.00000000e+00    
           3.15148682e-05     1.77621536e-04     0.00000000e+00    
           2.99481580e-05     1.81128533e-04     0.00000000e+00    
           2.78370007e-05     1.84294957e-04     0.00000000e+00    
           2.53323124e-05     1.86986144e-04     0.00000000e+00    
           2.40965692e-05     8.57053965e-05     0.00000000e+00    
           2.45034589e-05     8.43077796e-05     0.00000000e+00    
           2.50587000e-05     8.29161363e-05     0.00000000e+00    
           2.56643143e-05     8.15845924e-05     0.00000000e+00    
           2.60341276e-05     8.13313891e-05     0.00000000e+00    
           2.60108864e-05     8.26270989e-05     0.00000000e+00    
           2.57930460e-05     8.53219317e-05     0.00000000e+00    
           2.50259200e-05     8.87558563e-05     0.00000000e+00    
           2.38362936e-05     9.12975302e-05     0.00000000e+00    
           2.19034937e-05     9.45745633e-05     0.00000000e+00    
           2.19356534e-05     9.64917999e-05     0.00000000e+00    
           2.21876253e-05     9.87972817e-05     0.00000000e+00    
           2.21572245e-05     1.00790407e-04     0.00000000e+00    
           2.24854502e-05     1.02039041e-04     0.00000000e+00    
           2.26258580e-05     1.02147336e-04     0.00000000e+00    
           2.26919019e-05     1.01111778e-04     0.00000000e+00    
           2.26329394e-05     9.93155991e-05     0.00000000e+00    
           2.25827680e-05     9.73134811e-05     0.00000000e+00    
           2.27014334e-05     9.29175731e-05     0.00000000e+00    
           2.29583111e-05     9.07480280e-05     0.00000000e+00    
           2.31184240e-05     8.88373615e-05     0.00000000e+00    
           2.31126905e-05     8.76698687e-05     0.00000000e+00    
           1.05800982e-05     2.56315252e-04     0.00000000e+00    
           9.44999374e-06     2.56888685e-04     0.00000000e+00    
           8.74586567e-06     2.56992615e-04     0.00000000e+00    
           8.46723560e-06     2.57256150e-04     0.00000000e+00    
           8.01850729e-06     2.57594598e-04     0.00000000e+00    
           7.68223981e-06     2.57698674e-04     0.00000000e+00    
           7.77606419e-06     2.57319101e-04     0.00000000e+00    
           8.46014154e-06     2.55783467e-04     0.00000000e+00    
           9.59204317e-06     2.53307488e-04     0.00000000e+00    
           1.06626649e-05     2.50910438e-04     0.00000000e+00    
           1.15713519e-05     2.48605880e-04     0.00000000e+00    
           1.31615961e-05     2.44059120e-04     0.00000000e+00    
           1.40790171e-05     2.41685615e-04     0.00000000e+00    
           1.49894286e-05     2.39629779e-04     0.00000000e+00    
           1.54962472e-05     2.38145614e-04     0.00000000e+00    
           1.58017301e-05     2.37467277e-04     0.00000000e+00    
           1.58848579e-05     2.38017354e-04     0.00000000e+00    
           1.59491046e-05     2.39882851e-04     0.00000000e+00    
           1.61571697e-05     2.42481838e-04     0.00000000e+00    
           1.58986441e-05     2.45342846e-04     0.00000000e+00    