<?xml version="1.0"?>
<VTKFile type="UnstructuredGrid" version="0.1">
  <UnstructuredGrid>
    <Piece NumberOfPoints="1034" NumberOfCells="1614">
      <Points>
        <DataArray type="Float32" NumberOfComponents="3">
           5.21582007e-01     5.11657000e-01     0.00000000e+00    
           5.07319987e-01     5.11657000e-01     0.00000000e+00    
           4.65243995e-01     5.17907977e-01     0.00000000e+00    
           4.65243995e-01     5.04921973e-01     0.00000000e+00    
           4.75246996e-01     5.11415005e-01     0.00000000e+00    
           5.33852994e-01     5.04921973e-01     0.00000000e+00    
           5.33852994e-01     5.17907977e-01     0.00000000e+00    
           4.83779997e-01     5.34618974e-01     0.00000000e+00    
           4.68984991e-01     5.34618974e-01     0.00000000e+00    
           4.76381987e-01     5.23841977e-01     0.00000000e+00    
           4.68984991e-01     4.66010004e-01     0.00000000e+00    
           4.83779997e-01     4.66010004e-01     0.00000000e+00    
           4.99920011e-01     5.34618974e-01     0.00000000e+00    
           4.89203990e-01     5.34618974e-01     0.00000000e+00    
           4.94562000e-01     5.22280991e-01     0.00000000e+00    
           4.89203990e-01     4.66010004e-01     0.00000000e+00    
           4.99920011e-01     4.66010004e-01     0.00000000e+00    
           5.32517016e-01     4.74112004e-01     0.00000000e+00    
           5.17961025e-01     4.74112004e-01     0.00000000e+00    
           5.33852994e-01     5.19801974e-01     0.00000000e+00    
           5.33852994e-01     5.29603004e-01     0.00000000e+00    
           5.19536972e-01     5.24702013e-01     0.00000000e+00    
           4.65243995e-01     5.29603004e-01     0.00000000e+00    
           4.65243995e-01     5.19801974e-01     0.00000000e+00    
           4.92487997e-01     5.17117977e-01     0.00000000e+00    
           4.76904988e-01     5.17117977e-01     0.00000000e+00    
           5.17996013e-01     5.27033985e-01     0.00000000e+00    
           5.04473984e-01     5.27033985e-01     0.00000000e+00    
           5.08446991e-01     4.83435005e-01     0.00000000e+00    
           4.94414002e-01     4.83435005e-01     0.00000000e+00    
           4.65243995e-01     4.83101994e-01     0.00000000e+00    
           4.65243995e-01     4.74415004e-01     0.00000000e+00    
           4.78336990e-01     4.78758007e-01     0.00000000e+00    
           5.33852994e-01     4.74415004e-01     0.00000000e+00    
           5.33852994e-01     4.83101994e-01     0.00000000e+00    
           4.80668008e-01     4.95810986e-01     0.00000000e+00    
           4.66084987e-01     4.95810986e-01     0.00000000e+00    
           4.93930012e-01     4.79214013e-01     0.00000000e+00    
           4.78967011e-01     4.79214013e-01     0.00000000e+00    
           5.09284973e-01     4.97658014e-01     0.00000000e+00    
           4.95503992e-01     4.97658014e-01     0.00000000e+00    
           5.33011973e-01     5.01751006e-01     0.00000000e+00    
           5.17829001e-01     5.01751006e-01     0.00000000e+00    
           4.95451003e-01     5.00564992e-01     0.00000000e+00    
           4.80922014e-01     5.00564992e-01     0.00000000e+00    
           5.25367022e-01     4.88312006e-01     0.00000000e+00    
           5.09521008e-01     4.88312006e-01     0.00000000e+00    
           4.65243995e-01     5.34618974e-01     0.00000000e+00    
           4.65243995e-01     4.66010004e-01     0.00000000e+00    
           5.33852994e-01     4.66010004e-01     0.00000000e+00    
           5.33852994e-01     5.34618974e-01     0.00000000e+00    
           5.21338999e-01     5.13502657e-01     0.00000000e+00    
           5.20626605e-01     5.15222490e-01     0.00000000e+00    
           5.19493401e-01     5.16699374e-01     0.00000000e+00    
           5.18016517e-01     5.17832637e-01     0.00000000e+00    
           5.16296625e-01     5.18545032e-01     0.00000000e+00    
           5.14451027e-01     5.18787980e-01     0.00000000e+00    
           5.12605369e-01     5.18545032e-01     0.00000000e+00    
           5.10885477e-01     5.17832637e-01     0.00000000e+00    
           5.09408593e-01     5.16699374e-01     0.00000000e+00    
           5.08275390e-01     5.15222490e-01     0.00000000e+00    
           5.07562995e-01     5.13502657e-01     0.00000000e+00    
           5.07562995e-01     5.09811342e-01     0.00000000e+00    
           5.08275390e-01     5.08091509e-01     0.00000000e+00    
           5.09408593e-01     5.06614625e-01     0.00000000e+00    
           5.10885477e-01     5.05481362e-01     0.00000000e+00    
           5.12605369e-01     5.04768968e-01     0.00000000e+00    
           5.14451027e-01     5.04526019e-01     0.00000000e+00    
           5.16296625e-01     5.04768968e-01     0.00000000e+00    
           5.18016517e-01     5.05481362e-01     0.00000000e+00    
           5.19493401e-01     5.06614625e-01     0.00000000e+00    
           5.20626605e-01     5.08091509e-01     0.00000000e+00    
           5.21338999e-01     5.09811342e-01     0.00000000e+00    
           4.66931671e-01     5.04409373e-01     0.00000000e+00    
           4.68693614e-01     5.04328012e-01     0.00000000e+00    
           4.70421344e-01     5.04682958e-01     0.00000000e+00    
           4.72008497e-01     5.05452335e-01     0.00000000e+00    
           4.73357379e-01     5.06588817e-01     0.00000000e+00    
           4.74384934e-01     5.08022368e-01     0.00000000e+00    
           4.75027919e-01     5.09664834e-01     0.00000000e+00    
           4.75028187e-01     5.13165236e-01     0.00000000e+00    
           4.74385172e-01     5.14807761e-01     0.00000000e+00    
           4.73357558e-01     5.16241372e-01     0.00000000e+00    
           4.72008646e-01     5.17377913e-01     0.00000000e+00    
           4.70421433e-01     5.18147290e-01     0.00000000e+00    
           4.68693614e-01     5.18502235e-01     0.00000000e+00    
           4.66931641e-01     5.18420875e-01     0.00000000e+00    
           5.32303810e-01     5.16964078e-01     0.00000000e+00    
           5.31043947e-01     5.15658796e-01     0.00000000e+00    
           5.30155540e-01     5.14077127e-01     0.00000000e+00    
           5.29696345e-01     5.12322068e-01     0.00000000e+00    
           5.29696345e-01     5.10507941e-01     0.00000000e+00    
           5.30155540e-01     5.08752882e-01     0.00000000e+00    
           5.31043947e-01     5.07171214e-01     0.00000000e+00    
           5.32303810e-01     5.05865932e-01     0.00000000e+00    
           4.68517244e-01     5.32760799e-01     0.00000000e+00    
           4.68509018e-01     5.30844629e-01     0.00000000e+00    
           4.68960851e-01     5.28982460e-01     0.00000000e+00    
           4.69846308e-01     5.27283132e-01     0.00000000e+00    
           4.71113682e-01     5.25845945e-01     0.00000000e+00    
           4.72688884e-01     5.24754822e-01     0.00000000e+00    
           4.74479854e-01     5.24073541e-01     0.00000000e+00    
           4.78284091e-01     5.24073601e-01     0.00000000e+00    
           4.80075032e-01     5.24754822e-01     0.00000000e+00    
           4.81650203e-01     5.25845885e-01     0.00000000e+00    
           4.82917547e-01     5.27283013e-01     0.00000000e+00    
           4.83803004e-01     5.28982282e-01     0.00000000e+00    
           4.84254897e-01     5.30844331e-01     0.00000000e+00    
           4.84246761e-01     5.32760441e-01     0.00000000e+00    
           4.82887864e-01     4.67691004e-01     0.00000000e+00    
           4.81620818e-01     4.69110936e-01     0.00000000e+00    
           4.80051905e-01     4.70188022e-01     0.00000000e+00    
           4.78271484e-01     4.70860153e-01     0.00000000e+00    
           4.76382166e-01     4.71088618e-01     0.00000000e+00    
           4.74492878e-01     4.70860243e-01     0.00000000e+00    
           4.72712427e-01     4.70188200e-01     0.00000000e+00    
           4.71143454e-01     4.69111174e-01     0.00000000e+00    
           4.69876349e-01     4.67691302e-01     0.00000000e+00    
           4.88103986e-01     5.33086061e-01     0.00000000e+00    
           4.87431526e-01     5.31323195e-01     0.00000000e+00    
           4.87231195e-01     5.29447019e-01     0.00000000e+00    
           4.87516224e-01     5.27581930e-01     0.00000000e+00    
           4.88267750e-01     5.25851250e-01     0.00000000e+00    
           4.89436030e-01     5.24369657e-01     0.00000000e+00    
           4.90943670e-01     5.23235261e-01     0.00000000e+00    
           4.92690891e-01     5.22523046e-01     0.00000000e+00    
           4.96432930e-01     5.22523701e-01     0.00000000e+00    
           4.98180002e-01     5.23235798e-01     0.00000000e+00    
           4.99687493e-01     5.24370134e-01     0.00000000e+00    
           5.00855684e-01     5.25851607e-01     0.00000000e+00    
           5.01607120e-01     5.27582109e-01     0.00000000e+00    
           5.01892149e-01     5.29447079e-01     0.00000000e+00    
           5.01691818e-01     5.31323016e-01     0.00000000e+00    
           5.01019418e-01     5.33085763e-01     0.00000000e+00    
           4.98371124e-01     4.67269689e-01     0.00000000e+00    
           4.96539861e-01     4.68064904e-01     0.00000000e+00    
           4.94562000e-01     4.68336672e-01     0.00000000e+00    
           4.92584139e-01     4.68064904e-01     0.00000000e+00    
           4.90752876e-01     4.67269689e-01     0.00000000e+00    
           5.32269001e-01     4.75995690e-01     0.00000000e+00    
           5.31541944e-01     4.77750987e-01     0.00000000e+00    
           5.30385315e-01     4.79258329e-01     0.00000000e+00    
           5.28877974e-01     4.80414927e-01     0.00000000e+00    
[...]
      <PointData>
        <DataArray type="Float32" Name="Displacement" NumberOfComponents="3">
           3.75775999e-05     5.48682816e-04     0.00000000e+00    
           3.34398974e-05     5.60417597e-04     0.00000000e+00    
           1.10519404e-05     5.62536938e-04     0.00000000e+00    
           2.55021932e-05     5.42218739e-04     0.00000000e+00    
           2.15823820e-05     5.65454829e-04     0.00000000e+00    
           2.55021932e-05     5.42218739e-04     0.00000000e+00    
           1.10519404e-05     5.62536938e-04     0.00000000e+00    
           3.04594541e-05     8.20747344e-04     0.00000000e+00    
           2.65684375e-05     8.16773565e-04     0.00000000e+00    
           3.24608700e-05     8.03012401e-04     0.00000000e+00    
           2.65684375e-05    -8.22643051e-06     0.00000000e+00    
           3.04594541e-05    -4.25267899e-06     0.00000000e+00    
           2.76822848e-05     7.77793000e-04     0.00000000e+00    
           2.52727223e-05     7.88818172e-04     0.00000000e+00    
           1.32566038e-05     7.67771562e-04     0.00000000e+00    
           2.52727223e-05    -3.61818493e-05     0.00000000e+00    
           2.76822848e-05    -4.72070096e-05     0.00000000e+00    
           2.38387893e-05     1.15720715e-04     0.00000000e+00    
           2.01854218e-05     1.24740764e-04     0.00000000e+00    
           4.45493642e-05     6.93980372e-04     0.00000000e+00    
           3.59790720e-05     7.10937544e-04     0.00000000e+00    
           3.95725692e-05     6.93703594e-04     0.00000000e+00    
           3.59790720e-05     7.10937544e-04     0.00000000e+00    
           4.45493642e-05     6.93980372e-04     0.00000000e+00    
           2.57751290e-05     6.73023111e-04     0.00000000e+00    
           2.22235012e-05     6.54658535e-04     0.00000000e+00    
           3.83759907e-05     7.05655199e-04     0.00000000e+00    
           3.75973104e-05     7.24508660e-04     0.00000000e+00    
           3.54079566e-05     2.86859693e-04     0.00000000e+00    
           3.15275865e-05     2.47500808e-04     0.00000000e+00    
           2.88869724e-05     1.48110528e-04     0.00000000e+00    
           3.35900259e-05     1.36502524e-04     0.00000000e+00    
           3.18563361e-05     1.49592845e-04     0.00000000e+00    
           3.35900259e-05     1.36502524e-04     0.00000000e+00    
           2.88869724e-05     1.48110528e-04     0.00000000e+00    
           2.12245468e-05     3.97870375e-04     0.00000000e+00    
           1.98918206e-05     3.97839438e-04     0.00000000e+00    
           3.66644017e-05     1.99495742e-04     0.00000000e+00    
           3.43409811e-05     1.52979512e-04     0.00000000e+00    
           3.35370314e-05     3.63561441e-04     0.00000000e+00    
           2.82770961e-05     3.89412802e-04     0.00000000e+00    
           2.56690564e-05     4.76382731e-04     0.00000000e+00    
           2.00746381e-05     4.74320259e-04     0.00000000e+00    
           2.70292203e-05     4.15952178e-04     0.00000000e+00    
           2.32535604e-05     4.39812546e-04     0.00000000e+00    
           5.83939909e-05     3.08291288e-04     0.00000000e+00    
           5.35268446e-05     3.08869901e-04     0.00000000e+00    
           0.00000000e+00     8.24999996e-04     0.00000000e+00    
           0.00000000e+00     0.00000000e+00     0.00000000e+00    
           0.00000000e+00     0.00000000e+00     0.00000000e+00    
           0.00000000e+00     8.24999996e-04     0.00000000e+00    
           3.88908738e-05     5.52799087e-04     0.00000000e+00    
           4.02430633e-05     5.56104584e-04     0.00000000e+00    
           4.09912536e-05     5.59231266e-04     0.00000000e+00    
           4.10397297e-05     5.61812660e-04     0.00000000e+00    
           4.06362997e-05     5.64454938e-04     0.00000000e+00    
           4.00772115e-05     5.66631905e-04     0.00000000e+00    
           3.96078831e-05     5.67869458e-04     0.00000000e+00    
           3.90442328e-05     5.68054675e-04     0.00000000e+00    
           3.81187201e-05     5.67206938e-04     0.00000000e+00    
           3.65234482e-05     5.65290393e-04     0.00000000e+00    
           3.49786169e-05     5.63072274e-04     0.00000000e+00    
           3.20326690e-05     5.57326828e-04     0.00000000e+00    
           3.09032584e-05     5.54639206e-04     0.00000000e+00    
           2.98929754e-05     5.52233367e-04     0.00000000e+00    
           2.90977914e-05     5.50343306e-04     0.00000000e+00    
           2.87406911e-05     5.48624841e-04     0.00000000e+00    
           2.87541206e-05     5.47010510e-04     0.00000000e+00    
           2.95105583e-05     5.45157178e-04     0.00000000e+00    
           3.08677809e-05     5.43192436e-04     0.00000000e+00    
           3.28248389e-05     5.42588357e-04     0.00000000e+00    
           3.40037732e-05     5.43178874e-04     0.00000000e+00    
           3.55427874e-05     5.45292511e-04     0.00000000e+00    
           2.77198251e-05     5.43644419e-04     0.00000000e+00    
           2.87661423e-05     5.45463990e-04     0.00000000e+00    
           2.87766416e-05     5.47814358e-04     0.00000000e+00    
           2.81488119e-05     5.50798373e-04     0.00000000e+00    
           2.71928402e-05     5.54567960e-04     0.00000000e+00    
           2.58847322e-05     5.58415370e-04     0.00000000e+00    
           2.39986948e-05     5.62380475e-04     0.00000000e+00    
           1.87346668e-05     5.67647046e-04     0.00000000e+00    
           1.62361794e-05     5.68401534e-04     0.00000000e+00    
           1.42724703e-05     5.68585878e-04     0.00000000e+00    
           1.30190747e-05     5.68066374e-04     0.00000000e+00    
           1.21377652e-05     5.67127659e-04     0.00000000e+00    
           1.14352888e-05     5.65809954e-04     0.00000000e+00    
           1.08540917e-05     5.64416929e-04     0.00000000e+00    
           1.17954987e-05     5.59888547e-04     0.00000000e+00    
           1.32808209e-05     5.56950108e-04     0.00000000e+00    
           1.46561770e-05     5.52865968e-04     0.00000000e+00    
           1.61844946e-05     5.48911456e-04     0.00000000e+00    
           1.82344083e-05     5.44873707e-04     0.00000000e+00    
           1.99652513e-05     5.42058435e-04     0.00000000e+00    
           2.12628711e-05     5.41032699e-04     0.00000000e+00    
           2.31654594e-05     5.40938228e-04     0.00000000e+00    
           2.71059816e-05     8.13147635e-04     0.00000000e+00    
           2.85028509e-05     8.09933292e-04     0.00000000e+00    
           3.02363642e-05     8.07599514e-04     0.00000000e+00    
           3.13700693e-05     8.06035765e-04     0.00000000e+00    
           3.18095590e-05     8.04922602e-04     0.00000000e+00    
           3.19191277e-05     8.04121781e-04     0.00000000e+00    
           3.20109102e-05     8.03474511e-04     0.00000000e+00    
           3.31000119e-05     8.03024275e-04     0.00000000e+00    
           3.31042211e-05     8.04028066e-04     0.00000000e+00    
           3.23819586e-05     8.05735413e-04     0.00000000e+00    
           3.11049116e-05     8.07767326e-04     0.00000000e+00    
           2.99701696e-05     8.10994185e-04     0.00000000e+00    
           2.96170929e-05     8.14350671e-04     0.00000000e+00    
           2.99675321e-05     8.17411754e-04     0.00000000e+00    
           3.08055351e-05    -1.51106269e-06     0.00000000e+00    
           3.06716393e-05     7.03572198e-07     0.00000000e+00    
           3.00607844e-05     2.06756363e-06     0.00000000e+00    
           2.88003193e-05     2.77871322e-06     0.00000000e+00    
           2.75817238e-05     3.03877891e-06     0.00000000e+00    
           2.67449414e-05     2.55775285e-06     0.00000000e+00    
           2.64330010e-05     9.70273163e-07     0.00000000e+00    
           2.64827922e-05    -1.47772323e-06     0.00000000e+00    
           2.63060883e-05    -4.75998468e-06     0.00000000e+00    
           2.38601842e-05     7.87476834e-04     0.00000000e+00    
           2.20966158e-05     7.85245153e-04     0.00000000e+00    
           1.97336612e-05     7.82339135e-04     0.00000000e+00    
           1.66374393e-05     7.78259011e-04     0.00000000e+00    
           1.44236410e-05     7.74564804e-04     0.00000000e+00    
           1.26748218e-05     7.71773281e-04     0.00000000e+00    
           1.20160448e-05     7.69418082e-04     0.00000000e+00    
           1.23335831e-05     7.68176687e-04     0.00000000e+00    
           1.40467782e-05     7.67121383e-04     0.00000000e+00    
           1.48978397e-05     7.66503857e-04     0.00000000e+00    
           1.60635082e-05     7.66238838e-04     0.00000000e+00    
           1.75293208e-05     7.66412821e-04     0.00000000e+00    
           1.95140237e-05     7.67040241e-04     0.00000000e+00    
           2.19174417e-05     7.68438913e-04     0.00000000e+00    
           2.43831000e-05     7.71054474e-04     0.00000000e+00    
           2.62816266e-05     7.74223416e-04     0.00000000e+00    
           2.84959424e-05    -4.37794588e-05     0.00000000e+00    
           2.87203420e-05    -4.07225416e-05     0.00000000e+00    
           2.83493991e-05    -3.82774670e-05     0.00000000e+00    
           2.74613794e-05    -3.65826236e-05     0.00000000e+00    
           2.64088212e-05    -3.58313628e-05     0.00000000e+00    
           2.46095260e-05     1.17995580e-04     0.00000000e+00    
           2.48807555e-05     1.19541233e-04     0.00000000e+00    
           2.51876136e-05     1.21626261e-04     0.00000000e+00    
           2.57528864e-05     1.24247395e-04     0.00000000e+00    
           2.59697299e-05     1.27262814e-04     0.00000000e+00    
           2.54250062e-05     1.29821507e-04     0.00000000e+00    
           2.52220016e-05     1.31977111e-04     0.00000000e+00    
           2.44642779e-05     1.32757399e-04     0.00000000e+00    
           2.39339915e-05     1.32652582e-04     0.00000000e+00    
           2.29278758e-05     1.31332825e-04     0.00000000e+00    
           2.13541498e-05     1.28639076e-04     0.00000000e+00    
           1.90682222e-05     1.21228972e-04     0.00000000e+00    
           1.86001325e-05     1.17492658e-04     0.00000000e+00    
           1.84662094e-05     1.14398368e-04     0.00000000e+00    
           1.84548844e-05     1.11753019e-04     0.00000000e+00    
           1.84288019e-05     1.09583787e-04     0.00000000e+00    
           1.84922301e-05     1.07882530e-04     0.00000000e+00    
           1.88238955e-05     1.06901687e-04     0.00000000e+00    
           1.92216648e-05     1.07033033e-04     0.00000000e+00    
           2.03863892e-05     1.08210865e-04     0.00000000e+00    
           2.17069501e-05     1.10328445e-04     0.00000000e+00    
           2.29223879e-05     1.12813002e-04     0.00000000e+00    
           3.46310771e-05     7.11756642e-04     0.00000000e+00    
           3.36650337e-05     7.12215086e-04     0.00000000e+00    
           3.30275834e-05     7.11995934e-04     0.00000000e+00    
           3.32687268e-05     7.10907974e-04     0.00000000e+00    
           3.41118357e-05     7.08980486e-04     0.00000000e+00    
           3.49567854e-05     7.06436811e-04     0.00000000e+00    
           3.60016129e-05     7.02814257e-04     0.00000000e+00    
           3.76054886e-05     6.99218072e-04     0.00000000e+00    
           3.90641580e-05     6.96196454e-04     0.00000000e+00    
           3.95812458e-05     6.91119989e-04     0.00000000e+00    
           3.96608666e-05     6.89022068e-04     0.00000000e+00    
           4.05732535e-05     6.87518041e-04     0.00000000e+00    
           4.18444906e-05     6.87110587e-04     0.00000000e+00    
           4.30147047e-05     6.87262800e-04     0.00000000e+00    
           4.40712283e-05     6.87619846e-04     0.00000000e+00    
           4.50781590e-05     6.88220665e-04     0.00000000e+00    
           4.53142347e-05     6.88992499e-04     0.00000000e+00    
           4.52429194e-05     6.91099500e-04     0.00000000e+00    
           4.40207332e-05     6.97389944e-04     0.00000000e+00    
           4.30126820e-05     7.01177574e-04     0.00000000e+00    
           4.15914037e-05     7.04756123e-04     0.00000000e+00    
           3.95049865e-05     7.07913074e-04     0.00000000e+00    
           3.75066447e-05     7.09764252e-04     0.00000000e+00    
           2.39148376e-05     6.76340307e-04     0.00000000e+00    
           2.20546553e-05     6.79267745e-04     0.00000000e+00    
           2.06981531e-05     6.80300174e-04     0.00000000e+00    
           1.94035365e-05     6.80390513e-04     0.00000000e+00    
           1.77615366e-05     6.79439574e-04     0.00000000e+00    
           1.57972408e-05     6.77435950e-04     0.00000000e+00    
           1.47090077e-05     6.75736344e-04     0.00000000e+00    
           1.42429726e-05     6.73357048e-04     0.00000000e+00    
           1.47790761e-05     6.70317910e-04     0.00000000e+00    
           1.63638360e-05     6.67027663e-04     0.00000000e+00    
           1.77401471e-05     6.63012033e-04     0.00000000e+00    
           1.98092093e-05     6.58219855e-04     0.00000000e+00    
           2.50275170e-05     6.51827955e-04     0.00000000e+00    
           2.78762109e-05     6.50434056e-04     0.00000000e+00    
           3.01988021e-05     6.49870664e-04     0.00000000e+00    
           3.20887993e-05     6.49772701e-04     0.00000000e+00    
           3.34891847e-05     6.50253089e-04     0.00000000e+00    
           3.43375650e-05     6.51333714e-04     0.00000000e+00    
           3.44601904e-05     6.53316150e-04     0.00000000e+00    
           3.36167213e-05     6.55851327e-04     0.00000000e+00    
           3.22923188e-05     6.58950652e-04     0.00000000e+00    
           3.07486807e-05     6.62313076e-04     0.00000000e+00    
           2.91449378e-05     6.65941217e-04     0.00000000e+00    
           2.75480124e-05     6.69548928e-04     0.00000000e+00    
           4.13350390e-05     7.08566280e-04     0.00000000e+00    
           4.42653654e-05     7.12032022e-04     0.00000000e+00    
           4.61300879e-05     7.15557137e-04     0.00000000e+00    
           4.68906183e-05     7.18727184e-04     0.00000000e+00    
           4.69605438e-05     7.21588032e-04     0.00000000e+00    
           4.64054865e-05     7.23984151e-04     0.00000000e+00    
           4.54416986e-05     7.25697551e-04     0.00000000e+00    
           4.41090888e-05     7.26614147e-04     0.00000000e+00    
           4.22930498e-05     7.26713275e-04     0.00000000e+00    
           4.00853096e-05     7.25991616e-04     0.00000000e+00    
           3.50399023e-05     7.21733435e-04     0.00000000e+00    
           3.30463445e-05     7.18175608e-04     0.00000000e+00    
           3.17001250e-05     7.14069756e-04     0.00000000e+00    
           3.12501943e-05     7.09570595e-04     0.00000000e+00    
           3.09843344e-05     7.05380284e-04     0.00000000e+00    
           3.13104429e-05     7.02276884e-04     0.00000000e+00    
           3.19836799e-05     7.00510282e-04     0.00000000e+00    
           3.31210467e-05     7.00289267e-04     0.00000000e+00    
           3.45288390e-05     7.01768498e-04     0.00000000e+00    
           3.61480488e-05     7.03437370e-04     0.00000000e+00    
           3.13311903e-05     2.88389827e-04     0.00000000e+00    
           2.69179400e-05     2.88626819e-04     0.00000000e+00    
           2.28290846e-05     2.88034003e-04     0.00000000e+00    
           1.95230241e-05     2.86928407e-04     0.00000000e+00    
           1.73752323e-05     2.84316862e-04     0.00000000e+00    
           1.60004165e-05     2.80107633e-04     0.00000000e+00    
           1.58762978e-05     2.74683611e-04     0.00000000e+00    
           1.69367486e-05     2.68466480e-04     0.00000000e+00    
           1.87655205e-05     2.61941634e-04     0.00000000e+00    
           2.20077000e-05     2.56067753e-04     0.00000000e+00    
           2.63549155e-05     2.51109508e-04     0.00000000e+00    
           3.67066932e-05     2.46293144e-04     0.00000000e+00    
           4.16028706e-05     2.46859068e-04     0.00000000e+00    
           4.57993156e-05     2.48829310e-04     0.00000000e+00    
           4.86012541e-05     2.51610676e-04     0.00000000e+00    
           5.03942829e-05     2.55305844e-04     0.00000000e+00    
           5.10637547e-05     2.59866676e-04     0.00000000e+00    
           5.07088262e-05     2.64853734e-04     0.00000000e+00    
           4.93125517e-05     2.70031451e-04     0.00000000e+00    
           4.69861370e-05     2.75234779e-04     0.00000000e+00    
           4.37995004e-05     2.79916479e-04     0.00000000e+00    
           3.99215387e-05     2.83929956e-04     0.00000000e+00    
           3.49271213e-05     1.35638067e-04     0.00000000e+00    
           3.59482619e-05     1.34534464e-04     0.00000000e+00    
           3.69059344e-05     1.33863505e-04     0.00000000e+00    
           3.75542950e-05     1.33904090e-04     0.00000000e+00    
           3.77922224e-05     1.34868431e-04     0.00000000e+00    
           3.75036980e-05     1.36814910e-04     0.00000000e+00    
           3.70493799e-05     1.39716867e-04     0.00000000e+00    
           3.58132311e-05     1.43950965e-04     0.00000000e+00    
           3.39218714e-05     1.47298328e-04     0.00000000e+00    
           3.03520756e-05     1.51441331e-04     0.00000000e+00    
           2.96879462e-05     1.53600093e-04     0.00000000e+00    
           2.93412504e-05     1.55882401e-04     0.00000000e+00    
           2.87283019e-05     1.57241302e-04     0.00000000e+00    
           2.87829516e-05     1.57625211e-04     0.00000000e+00    
           2.86802988e-05     1.57097282e-04     0.00000000e+00    
           2.86369595e-05     1.55729649e-04     0.00000000e+00    
           2.86982340e-05     1.53652916e-04     0.00000000e+00    
           2.87977618e-05     1.51039072e-04     0.00000000e+00    
           2.94693800e-05     1.44764927e-04     0.00000000e+00    
           3.04327241e-05     1.41579105e-04     0.00000000e+00    
           3.15001707e-05     1.38900345e-04     0.00000000e+00    
           3.23471613e-05     1.37480951e-04     0.00000000e+00    
           2.03795043e-05     4.00599703e-04     0.00000000e+00    
           1.99782789e-05     4.02048521e-04     0.00000000e+00    
           1.99505321e-05     4.03277139e-04     0.00000000e+00    
           2.02442898e-05     4.04856779e-04     0.00000000e+00    
           2.00033974e-05     4.06461797e-04     0.00000000e+00    
           1.96344317e-05     4.07493993e-04     0.00000000e+00    
           1.94989443e-05     4.07682383e-04     0.00000000e+00    
           1.98216003e-05     4.06941195e-04     0.00000000e+00    
           2.03501459e-05     4.05281666e-04     0.00000000e+00    
           2.05317992e-05     4.03186743e-04     0.00000000e+00    
           2.03081327e-05     4.00708144e-04     0.00000000e+00    
           1.97648460e-05     3.94705276e-04     0.00000000e+00    
           1.99391470e-05     3.91320209e-04     0.00000000e+00    
           2.03808468e-05     3.88363260e-04     0.00000000e+00    
           2.03459203e-05     3.86311731e-04     0.00000000e+00    
           2.02829233e-05     3.84921703e-04     0.00000000e+00    
           2.03897107e-05     3.84285842e-04     0.00000000e+00    
           2.07324319e-05     3.84612649e-04     0.00000000e+00    
           2.15833406e-05     3.85911524e-04     0.00000000e+00    
           2.22055496e-05     3.88108485e-04     0.00000000e+00    