<?xml version="1.0"?>
<VTKFile type="UnstructuredGrid" version="0.1">
  <UnstructuredGrid>
    <Piece NumberOfPoints="1034" NumberOfCells="1614">
      <Points>
        <DataArray type="Float32" NumberOfComponents="3">
           5.21582007e-01     5.11657000e-01     0.00000000e+00    
           5.07319987e-01     5.11657000e-01     0.00000000e+00    
           4.65243995e-01     5.17907977e-01     0.00000000e+00    
           4.65243995e-01     5.04921973e-01     0.00000000e+00    
           4.75246996e-01     5.11415005e-01     0.00000000e+00    
           5.33852994e-01     5.04921973e-01     0.00000000e+00    
           5.33852994e-01     5.17907977e-01     0.00000000e+00    
           4.83779997e-01     5.34618974e-01     0.00000000e+00    
           4.68984991e-01     5.34618974e-01     0.00000000e+00    
           4.76381987e-01     5.23841977e-01     0.00000000e+00    
           4.68984991e-01     4.66010004e-01     0.00000000e+00    
           4.83779997e-01     4.66010004e-01     0.00000000e+00    
           4.99920011e-01     5.34618974e-01     0.00000000e+00    
           4.89203990e-01     5.34618974e-01     0.00000000e+00    
           4.94562000e-01     5.22280991e-01     0.00000000e+00    
           4.89203990e-01     4.66010004e-01     0.00000000e+00    
           4.99920011e-01     4.66010004e-01     0.00000000e+00    
           5.32517016e-01     4.74112004e-01     0.00000000e+00    
           5.17961025e-01     4.74112004e-01     0.00000000e+00    
           5.33852994e-01     5.19801974e-01     0.00000000e+00    
           5.33852994e-01     5.29603004e-01     0.00000000e+00    
           5.19536972e-01     5.24702013e-01     0.00000000e+00    
           4.65243995e-01     5.29603004e-01     0.00000000e+00    
           4.65243995e-01     5.19801974e-01     0.00000000e+00    
           4.92487997e-01     5.17117977e-01     0.00000000e+00    
           4.76904988e-01     5.17117977e-01     0.00000000e+00    
           5.17996013e-01     5.27033985e-01     0.00000000e+00    
           5.04473984e-01     5.27033985e-01     0.00000000e+00    
           5.08446991e-01     4.83435005e-01     0.00000000e+00    
           4.94414002e-01     4.83435005e-01     0.00000000e+00    
           4.65243995e-01     4.83101994e-01     0.00000000e+00    
           4.65243995e-01     4.74415004e-01     0.00000000e+00    
           4.78336990e-01     4.78758007e-01     0.00000000e+00    
           5.33852994e-01     4.74415004e-01     0.00000000e+00    
           5.33852994e-01     4.83101994e-01     0.00000000e+00    
           4.80668008e-01     4.95810986e-01     0.00000000e+00    
           4.66084987e-01     4.95810986e-01     0.00000000e+00    
           4.93930012e-01     4.79214013e-01     0.00000000e+00    
           4.78967011e-01     4.79214013e-01     0.00000000e+00    
           5.09284973e-01     4.97658014e-01     0.00000000e+00    
           4.95503992e-01     4.97658014e-01     0.00000000e+00    
           5.33011973e-01     5.01751006e-01     0.00000000e+00    
           5.17829001e-01     5.01751006e-01     0.00000000e+00    
           4.95451003e-01     5.00564992e-01     0.00000000e+00    
           4.80922014e-01     5.00564992e-01     0.00000000e+00    
           5.25367022e-01     4.88312006e-01     0.00000000e+00    
           5.09521008e-01     4.88312006e-01     0.00000000e+00    
           4.65243995e-01     5.34618974e-01     0.00000000e+00    
           4.65243995e-01     4.66010004e-01     0.00000000e+00    
           5.33852994e-01     4.66010004e-01     0.00000000e+00    
           5.33852994e-01     5.34618974e-01     0.00000000e+00    
           5.21338999e-01     5.13502657e-01     0.00000000e+00    
           5.20626605e-01     5.15222490e-01     0.00000000e+00    
           5.19493401e-01     5.16699374e-01     0.00000000e+00    
           5.18016517e-01     5.17832637e-01     0.00000000e+00    
           5.16296625e-01     5.18545032e-01     0.00000000e+00    
           5.14451027e-01     5.18787980e-01     0.00000000e+00    
           5.12605369e-01     5.18545032e-01     0.00000000e+00    
           5.10885477e-01     5.17832637e-01     0.00000000e+00    
           5.09408593e-01     5.16699374e-01     0.00000000e+00    
           5.08275390e-01     5.15222490e-01     0.00000000e+00    
           5.07562995e-01     5.13502657e-01     0.00000000e+00    
           5.07562995e-01     5.09811342e-01     0.00000000e+00    
           5.08275390e-01     5.08091509e-01     0.00000000e+00    
           5.09408593e-01     5.06614625e-01     0.00000000e+00    
           5.10885477e-01     5.05481362e-01     0.00000000e+00    
           5.12605369e-01     5.04768968e-01     0.00000000e+00    
           5.14451027e-01     5.04526019e-01     0.00000000e+00    
           5.16296625e-01     5.04768968e-01     0.00000000e+00    
           5.18016517e-01     5.05481362e-01     0.00000000e+00    
           5.19493401e-01     5.06614625e-01     0.00000000e+00    
           5.20626605e-01     5.08091509e-01     0.00000000e+00    
           5.21338999e-01     5.09811342e-01     0.00000000e+00    
           4.66931671e-01     5.04409373e-01     0.00000000e+00    
           4.68693614e-01     5.04328012e-01     0.00000000e+00    
           4.70421344e-01     5.04682958e-01     0.00000000e+00    
           4.72008497e-01     5.05452335e-01     0.00000000e+00    
           4.73357379e-01     5.06588817e-01     0.00000000e+00    
           4.74384934e-01     5.08022368e-01     0.00000000e+00    
           4.75027919e-01     5.09664834e-01     0.00000000e+00    
           4.75028187e-01     5.13165236e-01     0.00000000e+00    
           4.74385172e-01     5.14807761e-01     0.00000000e+00    
           4.73357558e-01     5.16241372e-01     0.00000000e+00    
           4.72008646e-01     5.17377913e-01     0.00000000e+00    
           4.70421433e-01     5.18147290e-01     0.00000000e+00    
           4.68693614e-01     5.18502235e-01     0.00000000e+00    
           4.66931641e-01     5.18420875e-01     0.00000000e+00    
           5.32303810e-01     5.16964078e-01     0.00000000e+00    
           5.31043947e-01     5.15658796e-01     0.00000000e+00    
           5.30155540e-01     5.14077127e-01     0.00000000e+00    
           5.29696345e-01     5.12322068e-01     0.00000000e+00    
           5.29696345e-01     5.10507941e-01     0.00000000e+00    
           5.30155540e-01     5.08752882e-01     0.00000000e+00    
           5.31043947e-01     5.07171214e-01     0.00000000e+00    
           5.32303810e-01     5.05865932e-01     0.00000000e+00    
           4.68517244e-01     5.32760799e-01     0.00000000e+00    
           4.68509018e-01     5.30844629e-01     0.00000000e+00    
           4.68960851e-01     5.28982460e-01     0.00000000e+00    
           4.69846308e-01     5.27283132e-01     0.00000000e+00    
           4.71113682e-01     5.25845945e-01     0.00000000e+00    
           4.72688884e-01     5.24754822e-01     0.00000000e+00    
           4.74479854e-01     5.24073541e-01     0.00000000e+00    
           4.78284091e-01     5.24073601e-01     0.00000000e+00    
           4.80075032e-01     5.24754822e-01     0.00000000e+00    
           4.81650203e-01     5.25845885e-01     0.00000000e+00    
           4.82917547e-01     5.27283013e-01     0.00000000e+00    
           4.83803004e-01     5.28982282e-01     0.00000000e+00    
           4.84254897e-01     5.30844331e-01     0.00000000e+00    
           4.84246761e-01     5.32760441e-01     0.00000000e+00    
           4.82887864e-01     4.67691004e-01     0.00000000e+00    
           4.81620818e-01     4.69110936e-01     0.00000000e+00    
           4.80051905e-01     4.70188022e-01     0.00000000e+00    
           4.78271484e-01     4.70860153e-01     0.00000000e+00    
           4.76382166e-01     4.71088618e-01     0.00000000e+00    
           4.74492878e-01     4.70860243e-01     0.00000000e+00    
           4.72712427e-01     4.70188200e-01     0.00000000e+00    
           4.71143454e-01     4.69111174e-01     0.00000000e+00    
           4.69876349e-01     4.67691302e-01     0.00000000e+00    
           4.88103986e-01     5.33086061e-01     0.00000000e+00    
           4.87431526e-01     5.31323195e-01     0.00000000e+00    
           4.87231195e-01     5.29447019e-01     0.00000000e+00    
           4.87516224e-01     5.27581930e-01     0.00000000e+00    
           4.88267750e-01     5.25851250e-01     0.00000000e+00    
           4.89436030e-01     5.24369657e-01     0.00000000e+00    
           4.90943670e-01     5.23235261e-01     0.00000000e+00    
           4.92690891e-01     5.22523046e-01     0.00000000e+00    
           4.96432930e-01     5.22523701e-01     0.00000000e+00    
           4.98180002e-01     5.23235798e-01     0.00000000e+00    
           4.99687493e-01     5.24370134e-01     0.00000000e+00    
           5.00855684e-01     5.25851607e-01     0.00000000e+00    
           5.01607120e-01     5.27582109e-01     0.00000000e+00    
           5.01892149e-01     5.29447079e-01     0.00000000e+00    
           5.01691818e-01     5.31323016e-01     0.00000000e+00    
           5.01019418e-01     5.33085763e-01     0.00000000e+00    
           4.98371124e-01     4.67269689e-01     0.00000000e+00    
           4.96539861e-01     4.68064904e-01     0.00000000e+00    
           4.94562000e-01     4.68336672e-01     0.00000000e+00    
           4.92584139e-01     4.68064904e-01     0.00000000e+00    
           4.90752876e-01     4.67269689e-01     0.00000000e+00    
           5.32269001e-01     4.75995690e-01     0.00000000e+00    
           5.31541944e-01     4.77750987e-01     0.00000000e+00    
           5.30385315e-01     4.79258329e-01     0.00000000e+00    
           5.28877974e-01     4.80414927e-01     0.00000000e+00    
[...]
      <PointData>
        <DataArray type="Float32" Name="Displacement" NumberOfComponents="3">
           5.14451312e-05     7.36838381e-04     0.00000000e+00    
           4.53800312e-05     7.45409925e-04     0.00000000e+00    
           1.81266350e-05     7.49432365e-04     0.00000000e+00    
           4.14967617e-05     7.27883598e-04     0.00000000e+00    
           3.47091809e-05     7.58978538e-04     0.00000000e+00    
           4.14967617e-05     7.27883598e-04     0.00000000e+00    
           1.81266350e-05     7.49432365e-04     0.00000000e+00    
           3.74532610e-05     1.09659624e-03     0.00000000e+00    
           3.19573301e-05     1.08094711e-03     0.00000000e+00    
           4.70199484e-05     1.07117801e-03     0.00000000e+00    
           3.19573301e-05    -1.90529045e-05     0.00000000e+00    
           3.74532610e-05    -3.40370343e-06     0.00000000e+00    
           3.80412857e-05     1.04252656e-03     0.00000000e+00    
           3.48821850e-05     1.05835148e-03     0.00000000e+00    
           1.74627494e-05     1.03211205e-03     0.00000000e+00    
           3.48821850e-05    -4.16485236e-05     0.00000000e+00    
           3.80412857e-05    -5.74734222e-05     0.00000000e+00    
           3.09498428e-05     1.56914903e-04     0.00000000e+00    
           2.58644104e-05     1.58874740e-04     0.00000000e+00    
           5.95995334e-05     9.27916146e-04     0.00000000e+00    
           4.79519877e-05     9.45934444e-04     0.00000000e+00    
           5.16743203e-05     9.24303837e-04     0.00000000e+00    
           4.79519877e-05     9.45934444e-04     0.00000000e+00    
           5.95995334e-05     9.27916146e-04     0.00000000e+00    
           3.80392084e-05     8.96209967e-04     0.00000000e+00    
           3.26774898e-05     8.66038317e-04     0.00000000e+00    
           5.03118354e-05     9.48689587e-04     0.00000000e+00    
           4.85957898e-05     9.78344586e-04     0.00000000e+00    
           4.62132411e-05     3.71406088e-04     0.00000000e+00    
           4.09454624e-05     3.19359475e-04     0.00000000e+00    
           3.24894172e-05     1.95394881e-04     0.00000000e+00    
           4.17955562e-05     1.81970361e-04     0.00000000e+00    
           3.89501802e-05     2.02779745e-04     0.00000000e+00    
           4.17955562e-05     1.81970361e-04     0.00000000e+00    
           3.24894172e-05     1.95394881e-04     0.00000000e+00    
           3.07726805e-05     5.27896569e-04     0.00000000e+00    
           2.76682877e-05     5.37237560e-04     0.00000000e+00    
           4.64141849e-05     2.63564812e-04     0.00000000e+00    
           4.28050262e-05     2.07265053e-04     0.00000000e+00    
           4.90419516e-05     4.89681086e-04     0.00000000e+00    
           4.25268008e-05     5.20210306e-04     0.00000000e+00    
           3.73688672e-05     6.35458680e-04     0.00000000e+00    
           2.99728927e-05     6.42723695e-04     0.00000000e+00    
           4.08475753e-05     5.45974530e-04     0.00000000e+00    
           3.58880243e-05     5.72341203e-04     0.00000000e+00    
           7.28024243e-05     4.07256623e-04     0.00000000e+00    
           6.58792123e-05     4.08284628e-04     0.00000000e+00    
           0.00000000e+00     1.09999999e-03     0.00000000e+00    
           0.00000000e+00     0.00000000e+00     0.00000000e+00    
           0.00000000e+00     0.00000000e+00     0.00000000e+00    
           0.00000000e+00     1.09999999e-03     0.00000000e+00    
           5.22805130e-05     7.41471595e-04     0.00000000e+00    
           5.31252081e-05     7.44904624e-04     0.00000000e+00    
           5.33588282e-05     7.47999002e-04     0.00000000e+00    
           5.29297686e-05     7.50365085e-04     0.00000000e+00    
           5.21889742e-05     7.52242922e-04     0.00000000e+00    
           5.15056745e-05     7.53619999e-04     0.00000000e+00    
           5.09462661e-05     7.54294218e-04     0.00000000e+00    
           5.04092459e-05     7.54215405e-04     0.00000000e+00    
           4.96592438e-05     7.53417204e-04     0.00000000e+00    
           4.80756607e-05     7.51299376e-04     0.00000000e+00    
           4.66525053e-05     7.48621707e-04     0.00000000e+00    
           4.43961180e-05     7.41797208e-04     0.00000000e+00    
           4.38072930e-05     7.38917151e-04     0.00000000e+00    
           4.32656379e-05     7.36532209e-04     0.00000000e+00    
           4.28367530e-05     7.34799774e-04     0.00000000e+00    
           4.27708364e-05     7.33370311e-04     0.00000000e+00    
           4.30036998e-05     7.32228451e-04     0.00000000e+00    
           4.39715150e-05     7.30979489e-04     0.00000000e+00    
           4.53113280e-05     7.29864289e-04     0.00000000e+00    
           4.71584826e-05     7.29966850e-04     0.00000000e+00    
           4.82463911e-05     7.30903237e-04     0.00000000e+00    
           4.95940149e-05     7.33111985e-04     0.00000000e+00    
           4.42892197e-05     7.30371801e-04     0.00000000e+00    
           4.56632188e-05     7.33742258e-04     0.00000000e+00    
           4.56459857e-05     7.37547874e-04     0.00000000e+00    
           4.46475933e-05     7.41680269e-04     0.00000000e+00    
           4.31037224e-05     7.46131351e-04     0.00000000e+00    
           4.11025940e-05     7.50594307e-04     0.00000000e+00    
           3.83216866e-05     7.55308371e-04     0.00000000e+00    
           3.04105470e-05     7.61547708e-04     0.00000000e+00    
           2.65240888e-05     7.62207084e-04     0.00000000e+00    
           2.33374958e-05     7.61947013e-04     0.00000000e+00    
           2.10994713e-05     7.60626281e-04     0.00000000e+00    
           1.94886888e-05     7.58639653e-04     0.00000000e+00    
           1.83165957e-05     7.56058085e-04     0.00000000e+00    
           1.76912090e-05     7.52965861e-04     0.00000000e+00    
           1.95005396e-05     7.45474244e-04     0.00000000e+00    
           2.19185822e-05     7.41612050e-04     0.00000000e+00    
           2.43435079e-05     7.37072551e-04     0.00000000e+00    
           2.69830143e-05     7.32696790e-04     0.00000000e+00    
           3.04112909e-05     7.28356303e-04     0.00000000e+00    
           3.35645200e-05     7.25866703e-04     0.00000000e+00    
           3.59978621e-05     7.25512800e-04     0.00000000e+00    
           3.86735701e-05     7.26097613e-04     0.00000000e+00    
           3.36189769e-05     1.07649167e-03     0.00000000e+00    
           3.65169471e-05     1.07265322e-03     0.00000000e+00    
           3.99892015e-05     1.07015204e-03     0.00000000e+00    
           4.26466831e-05     1.06895703e-03     0.00000000e+00    
           4.43721874e-05     1.06867123e-03     0.00000000e+00    
           4.54961737e-05     1.06902898e-03     0.00000000e+00    
           4.62784374e-05     1.06978870e-03     0.00000000e+00    
           4.74500521e-05     1.07321329e-03     0.00000000e+00    
           4.69963416e-05     1.07594056e-03     0.00000000e+00    
           4.55355439e-05     1.07896980e-03     0.00000000e+00    
           4.31038752e-05     1.08187739e-03     0.00000000e+00    
           4.07174230e-05     1.08569954e-03     0.00000000e+00    
           3.91679023e-05     1.08972401e-03     0.00000000e+00    
           3.83027509e-05     1.09319156e-03     0.00000000e+00    
           3.64415646e-05    -1.16738818e-06     0.00000000e+00    
           3.50624941e-05     8.11563368e-08     0.00000000e+00    
           3.35125987e-05     2.53144606e-07     0.00000000e+00    
           3.16467740e-05    -4.13999231e-07     0.00000000e+00    
           3.01267792e-05    -2.10585949e-06     0.00000000e+00    
           2.93062967e-05    -4.40401391e-06     0.00000000e+00    
           2.93403755e-05    -7.43498276e-06     0.00000000e+00    
           3.01316377e-05    -1.09431039e-05     0.00000000e+00    
           3.07663613e-05    -1.48627769e-05     0.00000000e+00    
           3.27901325e-05     1.05728291e-03     0.00000000e+00    
           3.02707504e-05     1.05492491e-03     0.00000000e+00    
           2.70846067e-05     1.05167239e-03     0.00000000e+00    
           2.31228460e-05     1.04705419e-03     0.00000000e+00    
           2.02556184e-05     1.04325800e-03     0.00000000e+00    
           1.78103292e-05     1.03994447e-03     0.00000000e+00    
           1.66001610e-05     1.03661127e-03     0.00000000e+00    
           1.65304900e-05     1.03388750e-03     0.00000000e+00    
           1.86166526e-05     1.03054021e-03     0.00000000e+00    
           1.99875394e-05     1.02925242e-03     0.00000000e+00    
           2.17701490e-05     1.02856394e-03     0.00000000e+00    
           2.39549972e-05     1.02855510e-03     0.00000000e+00    
           2.67928535e-05     1.02927431e-03     0.00000000e+00    
           3.01260479e-05     1.03097316e-03     0.00000000e+00    
           3.34958168e-05     1.03418506e-03     0.00000000e+00    
           3.61148268e-05     1.03810115e-03     0.00000000e+00    
           3.92085421e-05    -5.31426085e-05     0.00000000e+00    
           3.95963762e-05    -4.91566134e-05     0.00000000e+00    
           3.91800568e-05    -4.58163813e-05     0.00000000e+00    
           3.80503880e-05    -4.33694950e-05     0.00000000e+00    
           3.65881569e-05    -4.19097487e-05     0.00000000e+00    
           3.07115733e-05     1.59452160e-04     0.00000000e+00    
           3.00422798e-05     1.60926356e-04     0.00000000e+00    
           2.95019036e-05     1.62829790e-04     0.00000000e+00    
           2.94142028e-05     1.64929981e-04     0.00000000e+00    
           2.91657943e-05     1.67062564e-04     0.00000000e+00    
           2.84687121e-05     1.68239683e-04     0.00000000e+00    
           2.81978919e-05     1.69000778e-04     0.00000000e+00    
           2.76976043e-05     1.68722923e-04     0.00000000e+00    
           2.76212049e-05     1.67825056e-04     0.00000000e+00    
           2.73391724e-05     1.66106372e-04     0.00000000e+00    
           2.63325037e-05     1.63222372e-04     0.00000000e+00    
           2.55552222e-05     1.55155270e-04     0.00000000e+00    
           2.60443012e-05     1.51381886e-04     0.00000000e+00    
           2.67939613e-05     1.48776497e-04     0.00000000e+00    
           2.73729638e-05     1.47021841e-04     0.00000000e+00    
           2.77198469e-05     1.45899961e-04     0.00000000e+00    
           2.80547956e-05     1.45270344e-04     0.00000000e+00    
           2.84003290e-05     1.45218350e-04     0.00000000e+00    
           2.86231316e-05     1.46065766e-04     0.00000000e+00    
           2.94679485e-05     1.47590879e-04     0.00000000e+00    
           3.03901852e-05     1.50231805e-04     0.00000000e+00    
           3.09574534e-05     1.53351735e-04     0.00000000e+00    
           4.61625496e-05     9.46218730e-04     0.00000000e+00    
           4.49868166e-05     9.45938344e-04     0.00000000e+00    
           4.42913006e-05     9.44892527e-04     0.00000000e+00    
           4.44535144e-05     9.43108054e-04     0.00000000e+00    
           4.53175307e-05     9.40679573e-04     0.00000000e+00    
           4.64032964e-05     9.37900855e-04     0.00000000e+00    
           4.76677415e-05     9.34324111e-04     0.00000000e+00    
           4.95364511e-05     9.30534210e-04     0.00000000e+00    
           5.11528706e-05     9.27256304e-04     0.00000000e+00    
           5.18578890e-05     9.21094790e-04     0.00000000e+00    
           5.23482449e-05     9.18524514e-04     0.00000000e+00    
           5.39448156e-05     9.16822173e-04     0.00000000e+00    
           5.59352375e-05     9.16480611e-04     0.00000000e+00    
           5.77555475e-05     9.16968915e-04     0.00000000e+00    
           5.93754412e-05     9.17961588e-04     0.00000000e+00    
           6.06548492e-05     9.19596758e-04     0.00000000e+00    
           6.08970076e-05     9.21580649e-04     0.00000000e+00    
           6.06250615e-05     9.24504304e-04     0.00000000e+00    
           5.87552604e-05     9.31494404e-04     0.00000000e+00    
           5.74301157e-05     9.35568765e-04     0.00000000e+00    
           5.55648803e-05     9.39560938e-04     0.00000000e+00    
           5.27870070e-05     9.43040301e-04     0.00000000e+00    
           5.00647438e-05     9.44948755e-04     0.00000000e+00    
           3.47549321e-05     8.99778912e-04     0.00000000e+00    
           3.13203054e-05     9.02312633e-04     0.00000000e+00    
           2.87020521e-05     9.02405765e-04     0.00000000e+00    
           2.63558941e-05     9.01520718e-04     0.00000000e+00    
           2.39981000e-05     8.99628038e-04     0.00000000e+00    
           2.17087618e-05     8.96714919e-04     0.00000000e+00    
           2.04009630e-05     8.93207442e-04     0.00000000e+00    
           2.01579314e-05     8.89043615e-04     0.00000000e+00    
           2.11926217e-05     8.84566223e-04     0.00000000e+00    
           2.35621992e-05     8.80206528e-04     0.00000000e+00    
           2.58940836e-05     8.75505968e-04     0.00000000e+00    
           2.90059234e-05     8.70088581e-04     0.00000000e+00    
           3.69648624e-05     8.62951158e-04     0.00000000e+00    
           4.12918780e-05     8.61699984e-04     0.00000000e+00    
           4.49444378e-05     8.61694338e-04     0.00000000e+00    
           4.78893344e-05     8.62710644e-04     0.00000000e+00    
           4.99600355e-05     8.64717120e-04     0.00000000e+00    
           5.11750295e-05     8.67504801e-04     0.00000000e+00    
           5.14793865e-05     8.71096621e-04     0.00000000e+00    
           5.05287244e-05     8.75097350e-04     0.00000000e+00    
           4.87195066e-05     8.79401923e-04     0.00000000e+00    
           4.62776152e-05     8.83647241e-04     0.00000000e+00    
           4.36911396e-05     8.87916423e-04     0.00000000e+00    
           4.10217726e-05     8.92180018e-04     0.00000000e+00    
           5.48457028e-05     9.52428614e-04     0.00000000e+00    
           5.91463977e-05     9.57083132e-04     0.00000000e+00    
           6.20132851e-05     9.61989455e-04     0.00000000e+00    
           6.33770833e-05     9.66653868e-04     0.00000000e+00    
           6.36325858e-05     9.71036614e-04     0.00000000e+00    
           6.28613634e-05     9.74879891e-04     0.00000000e+00    
           6.13328084e-05     9.77878575e-04     0.00000000e+00    
           5.91179487e-05     9.79824923e-04     0.00000000e+00    
           5.61299457e-05     9.80571960e-04     0.00000000e+00    
           5.25568175e-05     9.80059267e-04     0.00000000e+00    
           4.45999794e-05     9.74804512e-04     0.00000000e+00    
           4.14608658e-05     9.70216992e-04     0.00000000e+00    
           3.92368238e-05     9.64958861e-04     0.00000000e+00    
           3.81975078e-05     9.59360390e-04     0.00000000e+00    
           3.74864285e-05     9.54236719e-04     0.00000000e+00    
           3.77887409e-05     9.49962414e-04     0.00000000e+00    
           3.89150191e-05     9.46723856e-04     0.00000000e+00    
           4.09051827e-05     9.44881467e-04     0.00000000e+00    
           4.35372822e-05     9.45196545e-04     0.00000000e+00    
           4.65531994e-05     9.46298940e-04     0.00000000e+00    
           4.05067876e-05     3.73198214e-04     0.00000000e+00    
           3.44973050e-05     3.73092014e-04     0.00000000e+00    
           2.89665804e-05     3.71612288e-04     0.00000000e+00    
           2.46505206e-05     3.68759705e-04     0.00000000e+00    
           2.18091573e-05     3.64105974e-04     0.00000000e+00    
           2.02341071e-05     3.58124613e-04     0.00000000e+00    
           2.03050658e-05     3.51268420e-04     0.00000000e+00    
           2.20105976e-05     3.44098691e-04     0.00000000e+00    
           2.45123738e-05     3.36613884e-04     0.00000000e+00    
           2.87119219e-05     3.29625444e-04     0.00000000e+00    
           3.42712337e-05     3.23667540e-04     0.00000000e+00    
           4.77050380e-05     3.18001257e-04     0.00000000e+00    
           5.41066147e-05     3.18846054e-04     0.00000000e+00    
           5.97101061e-05     3.21483793e-04     0.00000000e+00    
           6.36154800e-05     3.25309840e-04     0.00000000e+00    
           6.61909799e-05     3.30344017e-04     0.00000000e+00    
           6.72258029e-05     3.36447614e-04     0.00000000e+00    
           6.68225330e-05     3.43053951e-04     0.00000000e+00    
           6.49642097e-05     3.49795009e-04     0.00000000e+00    
           6.18752383e-05     3.56480625e-04     0.00000000e+00    
           5.76382081e-05     3.62476072e-04     0.00000000e+00    
           5.24130446e-05     3.67624132e-04     0.00000000e+00    
           4.39583273e-05     1.81510826e-04     0.00000000e+00    
           4.56094531e-05     1.81082520e-04     0.00000000e+00    
           4.69296756e-05     1.81589145e-04     0.00000000e+00    
           4.76916684e-05     1.83084325e-04     0.00000000e+00    
           4.78259753e-05     1.85222219e-04     0.00000000e+00    
           4.72533466e-05     1.88071761e-04     0.00000000e+00    
           4.63398064e-05     1.91490471e-04     0.00000000e+00    
           4.45591686e-05     1.96186505e-04     0.00000000e+00    
           4.19119133e-05     2.00112743e-04     0.00000000e+00    
           3.64965781e-05     2.04710683e-04     0.00000000e+00    
           3.48667745e-05     2.06747616e-04     0.00000000e+00    
           3.36611993e-05     2.08529687e-04     0.00000000e+00    
           3.22999877e-05     2.08939920e-04     0.00000000e+00    
           3.17861850e-05     2.08383019e-04     0.00000000e+00    
           3.13036471e-05     2.06966157e-04     0.00000000e+00    
           3.11291842e-05     2.04804543e-04     0.00000000e+00    
           3.13958990e-05     2.02066556e-04     0.00000000e+00    
           3.19561441e-05     1.98871727e-04     0.00000000e+00    
           3.36781632e-05     1.91337764e-04     0.00000000e+00    
           3.55349985e-05     1.87426602e-04     0.00000000e+00    
           3.77158431e-05     1.84246484e-04     0.00000000e+00    
           3.95932730e-05     1.82782955e-04     0.00000000e+00    
           3.08791095e-05     5.31189668e-04     0.00000000e+00    
           3.13526216e-05     5.33426704e-04     0.00000000e+00    
           3.20787476e-05     5.35738887e-04     0.00000000e+00    
           3.29779396e-05     5.38539083e-04     0.00000000e+00    
           3.30651928e-05     5.41253597e-04     0.00000000e+00    
           3.27762391e-05     5.43126196e-04     0.00000000e+00    
           3.23606000e-05     5.44174167e-04     0.00000000e+00    
           3.21236766e-05     5.44475042e-04     0.00000000e+00    
           3.19064493e-05     5.43950882e-04     0.00000000e+00    
           3.09864627e-05     5.42649650e-04     0.00000000e+00    
           2.94412948e-05     5.40377747e-04     0.00000000e+00    
           2.64195605e-05     5.33522165e-04     0.00000000e+00    
           2.57040974e-05     5.29438490e-04     0.00000000e+00    
           2.55010855e-05     5.25874377e-04     0.00000000e+00    
           2.48690612e-05     5.23085764e-04     0.00000000e+00    
           2.45840256e-05     5.20717411e-04     0.00000000e+00    
           2.47547850e-05     5.18856279e-04     0.00000000e+00    
           2.54633633e-05     5.17824315e-04     0.00000000e+00    
           2.68241747e-05     5.17728273e-04     0.00000000e+00    
           2.83073841e-05     5.18768094e-04     0.00000000e+00    