<?xml version="1.0"?>
<VTKFile type="UnstructuredGrid" version="0.1">
  <UnstructuredGrid>
    <Piece NumberOfPoints="1034" NumberOfCells="1614">
      <Points>
        <DataArray type="Float32" NumberOfComponents="3">
           5.21582007e-01     5.11657000e-01     0.00000000e+00    
           5.07319987e-01     5.11657000e-01     0.00000000e+00    
           4.65243995e-01     5.17907977e-01     0.00000000e+00    
           4.65243995e-01     5.04921973e-01     0.00000000e+00    
           4.75246996e-01     5.11415005e-01     0.00000000e+00    
           5.33852994e-01     5.04921973e-01     0.00000000e+00    
           5.33852994e-01     5.17907977e-01     0.00000000e+00    
           4.83779997e-01     5.34618974e-01     0.00000000e+00    
           4.68984991e-01     5.34618974e-01     0.00000000e+00    
           4.76381987e-01     5.23841977e-01     0.00000000e+00    
           4.68984991e-01     4.66010004e-01     0.00000000e+00    
           4.83779997e-01     4.66010004e-01     0.00000000e+00    
           4.99920011e-01     5.34618974e-01     0.00000000e+00    
           4.89203990e-01     5.34618974e-01     0.00000000e+00    
           4.94562000e-01     5.22280991e-01     0.00000000e+00    
           4.89203990e-01     4.66010004e-01     0.00000000e+00    
           4.99920011e-01     4.66010004e-01     0.00000000e+00    
           5.32517016e-01     4.74112004e-01     0.00000000e+00    
           5.17961025e-01     4.74112004e-01     0.00000000e+00    
           5.33852994e-01     5.19801974e-01     0.00000000e+00    
           5.33852994e-01     5.29603004e-01     0.00000000e+00    
           5.19536972e-01     5.24702013e-01     0.00000000e+00    
           4.65243995e-01     5.29603004e-01     0.00000000e+00    
           4.65243995e-01     5.19801974e-01     0.00000000e+00    
           4.92487997e-01     5.17117977e-01     0.00000000e+00    
           4.76904988e-01     5.17117977e-01     0.00000000e+00    
           5.17996013e-01     5.27033985e-01     0.00000000e+00    
           5.04473984e-01     5.27033985e-01     0.00000000e+00    
           5.08446991e-01     4.83435005e-01     0.00000000e+00    
           4.94414002e-01     4.83435005e-01     0.00000000e+00    
           4.65243995e-01     4.83101994e-01     0.00000000e+00    
           4.65243995e-01     4.74415004e-01     0.00000000e+00    
           4.78336990e-01     4.78758007e-01     0.00000000e+00    
           5.33852994e-01     4.74415004e-01     0.00000000e+00    
           5.33852994e-01     4.83101994e-01     0.00000000e+00    
           4.80668008e-01     4.95810986e-01     0.00000000e+00    
           4.66084987e-01     4.95810986e-01     0.00000000e+00    
           4.93930012e-01     4.79214013e-01     0.00000000e+00    
           4.78967011e-01     4.79214013e-01     0.00000000e+00    
           5.09284973e-01     4.97658014e-01     0.00000000e+00    
           4.95503992e-01     4.97658014e-01     0.00000000e+00    
           5.33011973e-01     5.01751006e-01     0.00000000e+00    
           5.17829001e-01     5.01751006e-01     0.00000000e+00    
           4.95451003e-01     5.00564992e-01     0.00000000e+00    
           4.80922014e-01     5.00564992e-01     0.00000000e+00    
           5.25367022e-01     4.88312006e-01     0.00000000e+00    
           5.09521008e-01     4.88312006e-01     0.00000000e+00    
           4.65243995e-01     5.34618974e-01     0.00000000e+00    
           4.65243995e-01     4.66010004e-01     0.00000000e+00    
           5.33852994e-01     4.66010004e-01     0.00000000e+00    
           5.33852994e-01     5.34618974e-01     0.00000000e+00    
           5.21338999e-01     5.13502657e-01     0.00000000e+00    
           5.20626605e-01     5.15222490e-01     0.00000000e+00    
           5.19493401e-01     5.16699374e-01     0.00000000e+00    
           5.18016517e-01     5.17832637e-01     0.00000000e+00    
           5.16296625e-01     5.18545032e-01     0.00000000e+00    
           5.14451027e-01     5.18787980e-01     0.00000000e+00    
           5.12605369e-01     5.18545032e-01     0.00000000e+00    
           5.10885477e-01     5.17832637e-01     0.00000000e+00    
           5.09408593e-01     5.16699374e-01     0.00000000e+00    
           5.08275390e-01     5.15222490e-01     0.00000000e+00    
           5.07562995e-01     5.13502657e-01     0.00000000e+00    
           5.07562995e-01     5.09811342e-01     0.00000000e+00    
           5.08275390e-01     5.08091509e-01     0.00000000e+00    
           5.09408593e-01     5.06614625e-01     0.00000000e+00    
           5.10885477e-01     5.05481362e-01     0.00000000e+00    
           5.12605369e-01     5.04768968e-01     0.00000000e+00    
           5.14451027e-01     5.04526019e-01     0.00000000e+00    
           5.16296625e-01     5.04768968e-01     0.00000000e+00    
           5.18016517e-01     5.05481362e-01     0.00000000e+00    
           5.19493401e-01     5.06614625e-01     0.00000000e+00    
           5.20626605e-01     5.08091509e-01     0.00000000e+00    
           5.21338999e-01     5.09811342e-01     0.00000000e+00    
           4.66931671e-01     5.04409373e-01     0.00000000e+00    
           4.68693614e-01     5.04328012e-01     0.00000000e+00    
           4.70421344e-01     5.04682958e-01     0.00000000e+00    
           4.72008497e-01     5.05452335e-01     0.00000000e+00    
           4.73357379e-01     5.06588817e-01     0.00000000e+00    
           4.74384934e-01     5.08022368e-01     0.00000000e+00    
           4.75027919e-01     5.09664834e-01     0.00000000e+00    
           4.75028187e-01     5.13165236e-01     0.00000000e+00    
           4.74385172e-01     5.14807761e-01     0.00000000e+00    
           4.73357558e-01     5.16241372e-01     0.00000000e+00    
           4.72008646e-01     5.17377913e-01     0.00000000e+00    
           4.70421433e-01     5.18147290e-01     0.00000000e+00    
           4.68693614e-01     5.18502235e-01     0.00000000e+00    
           4.66931641e-01     5.18420875e-01     0.00000000e+00    
           5.32303810e-01     5.16964078e-01     0.00000000e+00    
           5.31043947e-01     5.15658796e-01     0.00000000e+00    
           5.30155540e-01     5.14077127e-01     0.00000000e+00    
           5.29696345e-01     5.12322068e-01     0.00000000e+00    
           5.29696345e-01     5.10507941e-01     0.00000000e+00    
           5.30155540e-01     5.08752882e-01     0.00000000e+00    
           5.31043947e-01     5.07171214e-01     0.00000000e+00    
           5.32303810e-01     5.05865932e-01     0.00000000e+00    
           4.68517244e-01     5.32760799e-01     0.00000000e+00    
           4.68509018e-01     5.30844629e-01     0.00000000e+00    
           4.68960851e-01     5.28982460e-01     0.00000000e+00    
           4.69846308e-01     5.27283132e-01     0.00000000e+00    
           4.71113682e-01     5.25845945e-01     0.00000000e+00    
           4.72688884e-01     5.24754822e-01     0.00000000e+00    
           4.74479854e-01     5.24073541e-01     0.00000000e+00    
           4.78284091e-01     5.24073601e-01     0.00000000e+00    
           4.80075032e-01     5.24754822e-01     0.00000000e+00    
           4.81650203e-01     5.25845885e-01     0.00000000e+00    
           4.82917547e-01     5.27283013e-01     0.00000000e+00    
           4.83803004e-01     5.28982282e-01     0.00000000e+00    
           4.84254897e-01     5.30844331e-01     0.00000000e+00    
           4.84246761e-01     5.32760441e-01     0.00000000e+00    
           4.82887864e-01     4.67691004e-01     0.00000000e+00    
           4.81620818e-01     4.69110936e-01     0.00000000e+00    
           4.80051905e-01     4.70188022e-01     0.00000000e+00    
           4.78271484e-01     4.70860153e-01     0.00000000e+00    
           4.76382166e-01     4.71088618e-01     0.00000000e+00    
           4.74492878e-01     4.70860243e-01     0.00000000e+00    
           4.72712427e-01     4.70188200e-01     0.00000000e+00    
           4.71143454e-01     4.69111174e-01     0.00000000e+00    
           4.69876349e-01     4.67691302e-01     0.00000000e+00    
           4.88103986e-01     5.33086061e-01     0.00000000e+00    
           4.87431526e-01     5.31323195e-01     0.00000000e+00    
           4.87231195e-01     5.29447019e-01     0.00000000e+00    
           4.87516224e-01     5.27581930e-01     0.00000000e+00    
           4.88267750e-01     5.25851250e-01     0.00000000e+00    
           4.89436030e-01     5.24369657e-01     0.00000000e+00    
           4.90943670e-01     5.23235261e-01     0.00000000e+00    
           4.92690891e-01     5.22523046e-01     0.00000000e+00    
           4.96432930e-01     5.22523701e-01     0.00000000e+00    
           4.98180002e-01     5.23235798e-01     0.00000000e+00    
           4.99687493e-01     5.24370134e-01     0.00000000e+00    
           5.00855684e-01     5.25851607e-01     0.00000000e+00    
           5.01607120e-01     5.27582109e-01     0.00000000e+00    
           5.01892149e-01     5.29447079e-01     0.00000000e+00    
           5.01691818e-01     5.31323016e-01     0.00000000e+00    
           5.01019418e-01     5.33085763e-01     0.00000000e+00    
           4.98371124e-01     4.67269689e-01     0.00000000e+00    
           4.96539861e-01     4.68064904e-01     0.00000000e+00    
           4.94562000e-01     4.68336672e-01     0.00000000e+00    
           4.92584139e-01     4.68064904e-01     0.00000000e+00    
           4.90752876e-01     4.67269689e-01     0.00000000e+00    
           5.32269001e-01     4.75995690e-01     0.00000000e+00    
           5.31541944e-01     4.77750987e-01     0.00000000e+00    
           5.30385315e-01     4.79258329e-01     0.00000000e+00    
           5.28877974e-01     4.80414927e-01     0.00000000e+00    
[...]
      <PointData>
        <DataArray type="Float32" Name="Displacement" NumberOfComponents="3">
           3.49612455e-05     5.14133309e-04     0.00000000e+00    
           3.11886506e-05     5.26430493e-04     0.00000000e+00    
           9.69749090e-06     5.28432196e-04     0.00000000e+00    
           2.26722968e-05     5.08459227e-04     0.00000000e+00    
           1.91711933e-05     5.30252699e-04     0.00000000e+00    
           2.26722968e-05     5.08459227e-04     0.00000000e+00    
           9.69749090e-06     5.28432196e-04     0.00000000e+00    
           2.89442123e-05     7.70173792e-04     0.00000000e+00    
           2.53602520e-05     7.68172205e-04     0.00000000e+00    
           2.96916005e-05     7.53889210e-04     0.00000000e+00    
           2.53602520e-05    -6.82781592e-06     0.00000000e+00    
           2.89442123e-05    -4.82618452e-06     0.00000000e+00    
           2.57219272e-05     7.29571038e-04     0.00000000e+00    
           2.34634954e-05     7.39667623e-04     0.00000000e+00    
           1.24635280e-05     7.19682779e-04     0.00000000e+00    
           2.34634954e-05    -3.53323921e-05     0.00000000e+00    
           2.57219272e-05    -4.54289730e-05     0.00000000e+00    
           2.24566702e-05     1.08328859e-04     0.00000000e+00    
           1.90741102e-05     1.18422562e-04     0.00000000e+00    
           4.15308641e-05     6.51204318e-04     0.00000000e+00    
           3.37086531e-05     6.67868124e-04     0.00000000e+00    
           3.71771712e-05     6.51778188e-04     0.00000000e+00    
           3.37086531e-05     6.67868124e-04     0.00000000e+00    
           4.15308641e-05     6.51204318e-04     0.00000000e+00    
           2.34919953e-05     6.31754636e-04     0.00000000e+00    
           2.02732845e-05     6.15515863e-04     0.00000000e+00    
           3.60416307e-05     6.61762257e-04     0.00000000e+00    
           3.54191106e-05     6.78775134e-04     0.00000000e+00    
           3.32562049e-05     2.70949618e-04     0.00000000e+00    
           2.96489670e-05     2.33891144e-04     0.00000000e+00    
           2.79462747e-05     1.39368451e-04     0.00000000e+00    
           3.19870851e-05     1.28187035e-04     0.00000000e+00    
           3.03859342e-05     1.40123811e-04     0.00000000e+00    
           3.19870851e-05     1.28187035e-04     0.00000000e+00    
           2.79462747e-05     1.39368451e-04     0.00000000e+00    
           1.94914373e-05     3.74106865e-04     0.00000000e+00    
           1.84568235e-05     3.72448849e-04     0.00000000e+00    
           3.47624264e-05     1.87820740e-04     0.00000000e+00    
           3.26630943e-05     1.43335885e-04     0.00000000e+00    
           3.07226692e-05     3.40773928e-04     0.00000000e+00    
           2.57114480e-05     3.65701329e-04     0.00000000e+00    
           2.34966064e-05     4.47272934e-04     0.00000000e+00    
           1.82640142e-05     4.43699770e-04     0.00000000e+00    
           2.45592164e-05     3.92109127e-04     0.00000000e+00    
           2.10029029e-05     4.15299583e-04     0.00000000e+00    
           5.53977952e-05     2.89983582e-04     0.00000000e+00    
           5.09168822e-05     2.90420518e-04     0.00000000e+00    
           0.00000000e+00     7.75000022e-04     0.00000000e+00    
           0.00000000e+00     0.00000000e+00     0.00000000e+00    
           0.00000000e+00     0.00000000e+00     0.00000000e+00    
           0.00000000e+00     7.75000022e-04     0.00000000e+00    
           3.63547952e-05     5.18130662e-04     0.00000000e+00    
           3.77915312e-05     5.21386275e-04     0.00000000e+00    
           3.86330357e-05     5.24495670e-04     0.00000000e+00    
           3.87806431e-05     5.27101685e-04     0.00000000e+00    
           3.84538471e-05     5.29844430e-04     0.00000000e+00    
           3.79181802e-05     5.32196485e-04     0.00000000e+00    
           3.74609335e-05     5.33543702e-04     0.00000000e+00    
           3.68823094e-05     5.33760001e-04     0.00000000e+00    
           3.59308942e-05     5.32902137e-04     0.00000000e+00    
           3.43395623e-05     5.31067024e-04     0.00000000e+00    
           3.27736525e-05     5.28960663e-04     0.00000000e+00    
           2.97077313e-05     5.23455325e-04     0.00000000e+00    
           2.84853468e-05     5.20822767e-04     0.00000000e+00    
           2.73916921e-05     5.18426416e-04     0.00000000e+00    
           2.65304898e-05     5.16513654e-04     0.00000000e+00    
           2.61166006e-05     5.14740066e-04     0.00000000e+00    
           2.60865363e-05     5.13030740e-04     0.00000000e+00    
           2.68019776e-05     5.11062506e-04     0.00000000e+00    
           2.81586290e-05     5.08935656e-04     0.00000000e+00    
           3.01308282e-05     5.08189318e-04     0.00000000e+00    
           3.13247874e-05     5.08721685e-04     0.00000000e+00    
           3.28966635e-05     5.10824262e-04     0.00000000e+00    
           2.47565658e-05     5.09712903e-04     0.00000000e+00    
           2.57345237e-05     5.11264079e-04     0.00000000e+00    
           2.57388238e-05     5.13345934e-04     0.00000000e+00    
           2.51732872e-05     5.16138913e-04     0.00000000e+00    
           2.43041268e-05     5.19798836e-04     0.00000000e+00    
           2.31103077e-05     5.23507304e-04     0.00000000e+00    
           2.13788408e-05     5.27308031e-04     0.00000000e+00    
           1.65769252e-05     5.32357895e-04     0.00000000e+00    
           1.43185389e-05     5.33114595e-04     0.00000000e+00    
           1.25631323e-05     5.33360522e-04     0.00000000e+00    
           1.14728082e-05     5.32964827e-04     0.00000000e+00    
           1.07156229e-05     5.32195205e-04     0.00000000e+00    
           1.01007317e-05     5.31087338e-04     0.00000000e+00    
           9.54103871e-06     5.29979239e-04     0.00000000e+00    
           1.03266811e-05     5.26023970e-04     0.00000000e+00    
           1.16392130e-05     5.23238443e-04     0.00000000e+00    
           1.28499723e-05     5.19224268e-04     0.00000000e+00    
           1.41978462e-05     5.15359512e-04     0.00000000e+00    
           1.60206819e-05     5.11402264e-04     0.00000000e+00    
           1.75234218e-05     5.08554920e-04     0.00000000e+00    
           1.86399138e-05     5.07413701e-04     0.00000000e+00    
           2.04230728e-05     5.07232558e-04     0.00000000e+00    
           2.57043412e-05     7.64718570e-04     0.00000000e+00    
           2.68404601e-05     7.61633331e-04     0.00000000e+00    
           2.82781421e-05     7.59345829e-04     0.00000000e+00    
           2.91542183e-05     7.57735514e-04     0.00000000e+00    
           2.93817193e-05     7.56499649e-04     0.00000000e+00    
           2.93258945e-05     7.55518500e-04     0.00000000e+00    
           2.93030571e-05     7.54646899e-04     0.00000000e+00    
           3.03689976e-05     7.53512431e-04     0.00000000e+00    
           3.04588175e-05     7.54202483e-04     0.00000000e+00    
           2.98611740e-05     7.55689456e-04     0.00000000e+00    
           2.87886651e-05     7.57599657e-04     0.00000000e+00    
           2.78624939e-05     7.60708353e-04     0.00000000e+00    
           2.77036961e-05     7.63923745e-04     0.00000000e+00    
           2.82450437e-05     7.66887155e-04     0.00000000e+00    
           2.94995170e-05    -2.04182697e-06     0.00000000e+00    
           2.95642167e-05     2.90823806e-07     0.00000000e+00    
           2.91183005e-05     1.82951953e-06     0.00000000e+00    
           2.79842880e-05     2.77576737e-06     0.00000000e+00    
           2.68241783e-05     3.39868552e-06     0.00000000e+00    
           2.59893350e-05     3.26378745e-06     0.00000000e+00    
           2.56250787e-05     1.92758034e-06     0.00000000e+00    
           2.55493924e-05    -3.57125714e-07     0.00000000e+00    
           2.52515838e-05    -3.51956442e-06     0.00000000e+00    
           2.21747705e-05     7.38298870e-04     0.00000000e+00    
           2.05551387e-05     7.36111775e-04     0.00000000e+00    
           1.83568354e-05     7.33294059e-04     0.00000000e+00    
           1.54426234e-05     7.29352527e-04     0.00000000e+00    
           1.33488002e-05     7.25702557e-04     0.00000000e+00    
           1.17322643e-05     7.22990255e-04     0.00000000e+00    
           1.11770041e-05     7.20832730e-04     0.00000000e+00    
           1.15661232e-05     7.19881675e-04     0.00000000e+00    
           1.31852939e-05     7.19188072e-04     0.00000000e+00    
           1.39447829e-05     7.18689640e-04     0.00000000e+00    
           1.49996367e-05     7.18502037e-04     0.00000000e+00    
           1.63322911e-05     7.18712574e-04     0.00000000e+00    
           1.81557643e-05     7.19327305e-04     0.00000000e+00    
           2.03806885e-05     7.20668409e-04     0.00000000e+00    
           2.26708653e-05     7.23163364e-04     0.00000000e+00    
           2.44269868e-05     7.26179162e-04     0.00000000e+00    
           2.64636565e-05    -4.21942168e-05     0.00000000e+00    
           2.66568932e-05    -3.93311821e-05     0.00000000e+00    
           2.63006568e-05    -3.70695816e-05     0.00000000e+00    
           2.54677398e-05    -3.55234042e-05     0.00000000e+00    
           2.44956591e-05    -3.48944704e-05     0.00000000e+00    
           2.33833471e-05     1.10538575e-04     0.00000000e+00    
           2.38010398e-05     1.12079942e-04     0.00000000e+00    
           2.42419555e-05     1.14175797e-04     0.00000000e+00    
           2.49133736e-05     1.16857467e-04     0.00000000e+00    
           2.52081227e-05     1.19988297e-04     0.00000000e+00    
           2.46939690e-05     1.22772297e-04     0.00000000e+00    
           2.45002848e-05     1.25190039e-04     0.00000000e+00    
           2.37013210e-05     1.26148356e-04     0.00000000e+00    
           2.30941405e-05     1.26162413e-04     0.00000000e+00    
           2.19824142e-05     1.24872575e-04     0.00000000e+00    
           2.03412710e-05     1.22212397e-04     0.00000000e+00    
           1.78392074e-05     1.14976647e-04     0.00000000e+00    
           1.72208311e-05     1.11284025e-04     0.00000000e+00    
           1.69384439e-05     1.08145927e-04     0.00000000e+00    
           1.68222123e-05     1.05374354e-04     0.00000000e+00    
           1.67425733e-05     1.03015613e-04     0.00000000e+00    
           1.67696635e-05     1.01132799e-04     0.00000000e+00    
           1.71003612e-05     1.00011304e-04     0.00000000e+00    
           1.75190034e-05     1.00055004e-04     0.00000000e+00    
           1.87214337e-05     1.01190759e-04     0.00000000e+00    
           2.00902723e-05     1.03202532e-04     0.00000000e+00    
           2.13985186e-05     1.05557541e-04     0.00000000e+00    
           3.24776338e-05     6.68785127e-04     0.00000000e+00    
           3.15828620e-05     6.69401314e-04     0.00000000e+00    
           3.09656316e-05     6.69406320e-04     0.00000000e+00    
           3.12055308e-05     6.68500084e-04     0.00000000e+00    
           3.20233048e-05     6.66701642e-04     0.00000000e+00    
           3.28060378e-05     6.64209016e-04     0.00000000e+00    
           3.37906095e-05     6.60623831e-04     0.00000000e+00    
           3.53123323e-05     6.57110533e-04     0.00000000e+00    
           3.67043940e-05     6.54172793e-04     0.00000000e+00    
           3.71270107e-05     6.49313151e-04     0.00000000e+00    
           3.71128772e-05     6.47299050e-04     0.00000000e+00    
           3.78778132e-05     6.45823369e-04     0.00000000e+00    
           3.89914130e-05     6.45379710e-04     0.00000000e+00    
           4.00212593e-05     6.45444146e-04     0.00000000e+00    
           4.09580098e-05     6.45663938e-04     0.00000000e+00    
           4.18985292e-05     6.46052009e-04     0.00000000e+00    
           4.21440600e-05     6.46532048e-04     0.00000000e+00    
           4.21303885e-05     6.48444577e-04     0.00000000e+00    
           4.10801658e-05     6.54570817e-04     0.00000000e+00    
           4.01610050e-05     6.58273930e-04     0.00000000e+00    
           3.88530607e-05     6.61749626e-04     0.00000000e+00    
           3.69283516e-05     6.64828578e-04     0.00000000e+00    
           3.50963637e-05     6.66661712e-04     0.00000000e+00    
           2.18799105e-05     6.34991040e-04     0.00000000e+00    
           2.02943374e-05     6.37930294e-04     0.00000000e+00    
           1.91652452e-05     6.39145204e-04     0.00000000e+00    
           1.80497191e-05     6.39400911e-04     0.00000000e+00    
           1.65271249e-05     6.38585072e-04     0.00000000e+00    
           1.46443308e-05     6.36742567e-04     0.00000000e+00    
           1.36104718e-05     6.35367178e-04     0.00000000e+00    
           1.31066445e-05     6.33359072e-04     0.00000000e+00    
           1.35488881e-05     6.30600087e-04     0.00000000e+00    
           1.49838042e-05     6.27502333e-04     0.00000000e+00    
           1.62049164e-05     6.23600907e-04     0.00000000e+00    
           1.80848219e-05     6.18960126e-04     0.00000000e+00    
           2.28069348e-05     6.12757227e-04     0.00000000e+00    
           2.53851777e-05     6.11356343e-04     0.00000000e+00    
           2.74662252e-05     6.10710529e-04     0.00000000e+00    
           2.91571869e-05     6.10440387e-04     0.00000000e+00    
           3.04249770e-05     6.10649819e-04     0.00000000e+00    
           3.12182019e-05     6.11382711e-04     0.00000000e+00    
           3.13167147e-05     6.13049313e-04     0.00000000e+00    
           3.05006815e-05     6.15316036e-04     0.00000000e+00    
           2.92777295e-05     6.18207501e-04     0.00000000e+00    
           2.78999760e-05     6.21444313e-04     0.00000000e+00    
           2.64649661e-05     6.24946668e-04     0.00000000e+00    
           2.50548492e-05     6.28410315e-04     0.00000000e+00    
           3.87337241e-05     6.64515304e-04     0.00000000e+00    
           4.14245151e-05     6.67764514e-04     0.00000000e+00    
           4.31172994e-05     6.71040209e-04     0.00000000e+00    
           4.37829840e-05     6.73948787e-04     0.00000000e+00    
           4.38272218e-05     6.76548691e-04     0.00000000e+00    
           4.33116729e-05     6.78700395e-04     0.00000000e+00    
           4.24436075e-05     6.80202269e-04     0.00000000e+00    
           4.12568697e-05     6.80955942e-04     0.00000000e+00    
           3.96360665e-05     6.80956058e-04     0.00000000e+00    
           3.76574753e-05     6.80208032e-04     0.00000000e+00    
           3.31067640e-05     6.76147698e-04     0.00000000e+00    
           3.13048113e-05     6.72790979e-04     0.00000000e+00    
           3.01001328e-05     6.68911089e-04     0.00000000e+00    
           2.97321367e-05     6.64637249e-04     0.00000000e+00    
           2.95371883e-05     6.60618301e-04     0.00000000e+00    
           2.98705854e-05     6.57678291e-04     0.00000000e+00    
           3.04732093e-05     6.56159944e-04     0.00000000e+00    
           3.14660101e-05     6.56233926e-04     0.00000000e+00    
           3.26733025e-05     6.57867931e-04     0.00000000e+00    
           3.40617735e-05     6.59599318e-04     0.00000000e+00    
           2.94597940e-05     2.72418314e-04     0.00000000e+00    
           2.53284543e-05     2.72700127e-04     0.00000000e+00    
           2.14946303e-05     2.72234232e-04     0.00000000e+00    
           1.83697739e-05     2.71388650e-04     0.00000000e+00    
           1.63396944e-05     2.69184762e-04     0.00000000e+00    
           1.49991320e-05     2.65310664e-04     0.00000000e+00    
           1.48401241e-05     2.60127010e-04     0.00000000e+00    
           1.57949707e-05     2.54035578e-04     0.00000000e+00    
           1.75305759e-05     2.47737800e-04     0.00000000e+00    
           2.06101395e-05     2.42102557e-04     0.00000000e+00    
           2.47436146e-05     2.37353408e-04     0.00000000e+00    
           3.45472035e-05     2.32720835e-04     0.00000000e+00    
           3.91708199e-05     2.33242681e-04     0.00000000e+00    
           4.31122899e-05     2.35095111e-04     0.00000000e+00    
           4.57200404e-05     2.37696557e-04     0.00000000e+00    
           4.73760047e-05     2.41155882e-04     0.00000000e+00    
           4.79818118e-05     2.45445641e-04     0.00000000e+00    
           4.76309579e-05     2.50142592e-04     0.00000000e+00    
           4.63107208e-05     2.55030027e-04     0.00000000e+00    
           4.41168340e-05     2.59951776e-04     0.00000000e+00    
           4.11158981e-05     2.64386443e-04     0.00000000e+00    
           3.74754927e-05     2.68183503e-04     0.00000000e+00    
           3.31980445e-05     1.27285035e-04     0.00000000e+00    
           3.41199084e-05     1.26111234e-04     0.00000000e+00    
           3.50164919e-05     1.25284772e-04     0.00000000e+00    
           3.56517048e-05     1.25075894e-04     0.00000000e+00    
           3.59077640e-05     1.25847379e-04     0.00000000e+00    
           3.56621422e-05     1.27666426e-04     0.00000000e+00    
           3.52544630e-05     1.30533052e-04     0.00000000e+00    
           3.40931110e-05     1.34671995e-04     0.00000000e+00    
           3.23137283e-05     1.37907336e-04     0.00000000e+00    
           2.90217286e-05     1.41938071e-04     0.00000000e+00    
           2.84908820e-05     1.44084624e-04     0.00000000e+00    
           2.82601395e-05     1.46411898e-04     0.00000000e+00    
           2.77535091e-05     1.47919389e-04     0.00000000e+00    
           2.78784810e-05     1.48448366e-04     0.00000000e+00    
           2.78296357e-05     1.48038380e-04     0.00000000e+00    
           2.78048465e-05     1.46758568e-04     0.00000000e+00    
           2.78386524e-05     1.44727412e-04     0.00000000e+00    
           2.78978605e-05     1.42186589e-04     0.00000000e+00    
           2.84554717e-05     1.36168514e-04     0.00000000e+00    
           2.92911645e-05     1.33129259e-04     0.00000000e+00    
           3.01937580e-05     1.30559943e-04     0.00000000e+00    
           3.08881536e-05     1.29169232e-04     0.00000000e+00    
           1.84908658e-05     3.76716867e-04     0.00000000e+00    
           1.79389208e-05     3.78012977e-04     0.00000000e+00    
           1.77759739e-05     3.79035744e-04     0.00000000e+00    
           1.79607050e-05     3.80379992e-04     0.00000000e+00    
           1.76718040e-05     3.81766324e-04     0.00000000e+00    
           1.72967248e-05     3.82642844e-04     0.00000000e+00    
           1.72112523e-05     3.82719067e-04     0.00000000e+00    
           1.76110061e-05     3.81809863e-04     0.00000000e+00    
           1.82677031e-05     3.79940786e-04     0.00000000e+00    
           1.86334146e-05     3.77736142e-04     0.00000000e+00    
           1.86384314e-05     3.75246425e-04     0.00000000e+00    
           1.85236531e-05     3.69441637e-04     0.00000000e+00    
           1.88520662e-05     3.66205670e-04     0.00000000e+00    
           1.93991691e-05     3.63377418e-04     0.00000000e+00    
           1.94743207e-05     3.61430284e-04     0.00000000e+00    
           1.94643380e-05     3.60206293e-04     0.00000000e+00    
           1.95620432e-05     3.59790225e-04     0.00000000e+00    
           1.98461548e-05     3.60385922e-04     0.00000000e+00    
           2.05913657e-05     3.61964281e-04     0.00000000e+00    
           2.10515864e-05     3.64336185e-04     0.00000000e+00    