<?xml version="1.0"?>
<VTKFile type="UnstructuredGrid" version="0.1">
  <UnstructuredGrid>
    <Piece NumberOfPoints="1034" NumberOfCells="1614">
      <Points>
        <DataArray type="Float32" NumberOfComponents="3">
           5.21582007e-01     5.11657000e-01     0.00000000e+00    
           5.07319987e-01     5.11657000e-01     0.00000000e+00    
           4.65243995e-01     5.17907977e-01     0.00000000e+00    
           4.65243995e-01     5.04921973e-01     0.00000000e+00    
           4.75246996e-01     5.11415005e-01     0.00000000e+00    
           5.33852994e-01     5.04921973e-01     0.00000000e+00    
           5.33852994e-01     5.17907977e-01     0.00000000e+00    
           4.83779997e-01     5.34618974e-01     0.00000000e+00    
           4.68984991e-01     5.34618974e-01     0.00000000e+00    
           4.76381987e-01     5.23841977e-01     0.00000000e+00    
           4.68984991e-01     4.66010004e-01     0.00000000e+00    
           4.83779997e-01     4.66010004e-01     0.00000000e+00    
           4.99920011e-01     5.34618974e-01     0.00000000e+00    
           4.89203990e-01     5.34618974e-01     0.00000000e+00    
           4.94562000e-01     5.22280991e-01     0.00000000e+00    
           4.89203990e-01     4.66010004e-01     0.00000000e+00    
           4.99920011e-01     4.66010004e-01     0.00000000e+00    
           5.32517016e-01     4.74112004e-01     0.00000000e+00    
           5.17961025e-01     4.74112004e-01     0.00000000e+00    
           5.33852994e-01     5.19801974e-01     0.00000000e+00    
           5.33852994e-01     5.29603004e-01     0.00000000e+00    
           5.19536972e-01     5.24702013e-01     0.00000000e+00    
           4.65243995e-01     5.29603004e-01     0.00000000e+00    
           4.65243995e-01     5.19801974e-01     0.00000000e+00    
           4.92487997e-01     5.17117977e-01     0.00000000e+00    
           4.76904988e-01     5.17117977e-01     0.00000000e+00    
           5.17996013e-01     5.27033985e-01     0.00000000e+00    
           5.04473984e-01     5.27033985e-01     0.00000000e+00    
           5.08446991e-01     4.83435005e-01     0.00000000e+00    
           4.94414002e-01     4.83435005e-01     0.00000000e+00    
           4.65243995e-01     4.83101994e-01     0.00000000e+00    
           4.65243995e-01     4.74415004e-01     0.00000000e+00    
           4.78336990e-01     4.78758007e-01     0.00000000e+00    
           5.33852994e-01     4.74415004e-01     0.00000000e+00    
           5.33852994e-01     4.83101994e-01     0.00000000e+00    
           4.80668008e-01     4.95810986e-01     0.00000000e+00    
           4.66084987e-01     4.95810986e-01     0.00000000e+00    
           4.93930012e-01     4.79214013e-01     0.00000000e+00    
           4.78967011e-01     4.79214013e-01     0.00000000e+00    
           5.09284973e-01     4.97658014e-01     0.00000000e+00    
           4.95503992e-01     4.97658014e-01     0.00000000e+00    
           5.33011973e-01     5.01751006e-01     0.00000000e+00    
           5.17829001e-01     5.01751006e-01     0.00000000e+00    
           4.95451003e-01     5.00564992e-01     0.00000000e+00    
           4.80922014e-01     5.00564992e-01     0.00000000e+00    
           5.25367022e-01     4.88312006e-01     0.00000000e+00    
           5.09521008e-01     4.88312006e-01     0.00000000e+00    
           4.65243995e-01     5.34618974e-01     0.00000000e+00    
           4.65243995e-01     4.66010004e-01     0.00000000e+00    
           5.33852994e-01     4.66010004e-01     0.00000000e+00    
           5.33852994e-01     5.34618974e-01     0.00000000e+00    
           5.21338999e-01     5.13502657e-01     0.00000000e+00    
           5.20626605e-01     5.15222490e-01     0.00000000e+00    
           5.19493401e-01     5.16699374e-01     0.00000000e+00    
           5.18016517e-01     5.17832637e-01     0.00000000e+00    
           5.16296625e-01     5.18545032e-01     0.00000000e+00    
           5.14451027e-01     5.18787980e-01     0.00000000e+00    
           5.12605369e-01     5.18545032e-01     0.00000000e+00    
           5.10885477e-01     5.17832637e-01     0.00000000e+00    
           5.09408593e-01     5.16699374e-01     0.00000000e+00    
           5.08275390e-01     5.15222490e-01     0.00000000e+00    
           5.07562995e-01     5.13502657e-01     0.00000000e+00    
           5.07562995e-01     5.09811342e-01     0.00000000e+00    
           5.08275390e-01     5.08091509e-01     0.00000000e+00    
           5.09408593e-01     5.06614625e-01     0.00000000e+00    
           5.10885477e-01     5.05481362e-01     0.00000000e+00    
           5.12605369e-01     5.04768968e-01     0.00000000e+00    
           5.14451027e-01     5.04526019e-01     0.00000000e+00    
           5.16296625e-01     5.04768968e-01     0.00000000e+00    
           5.18016517e-01     5.05481362e-01     0.00000000e+00    
           5.19493401e-01     5.06614625e-01     0.00000000e+00    
           5.20626605e-01     5.08091509e-01     0.00000000e+00    
           5.21338999e-01     5.09811342e-01     0.00000000e+00    
           4.66931671e-01     5.04409373e-01     0.00000000e+00    
           4.68693614e-01     5.04328012e-01     0.00000000e+00    
           4.70421344e-01     5.04682958e-01     0.00000000e+00    
           4.72008497e-01     5.05452335e-01     0.00000000e+00    
           4.73357379e-01     5.06588817e-01     0.00000000e+00    
           4.74384934e-01     5.08022368e-01     0.00000000e+00    
           4.75027919e-01     5.09664834e-01     0.00000000e+00    
           4.75028187e-01     5.13165236e-01     0.00000000e+00    
           4.74385172e-01     5.14807761e-01     0.00000000e+00    
           4.73357558e-01     5.16241372e-01     0.00000000e+00    
           4.72008646e-01     5.17377913e-01     0.00000000e+00    
           4.70421433e-01     5.18147290e-01     0.00000000e+00    
           4.68693614e-01     5.18502235e-01     0.00000000e+00    
           4.66931641e-01     5.18420875e-01     0.00000000e+00    
           5.32303810e-01     5.16964078e-01     0.00000000e+00    
           5.31043947e-01     5.15658796e-01     0.00000000e+00    
           5.30155540e-01     5.14077127e-01     0.00000000e+00    
           5.29696345e-01     5.12322068e-01     0.00000000e+00    
           5.29696345e-01     5.10507941e-01     0.00000000e+00    
           5.30155540e-01     5.08752882e-01     0.00000000e+00    
           5.31043947e-01     5.07171214e-01     0.00000000e+00    
           5.32303810e-01     5.05865932e-01     0.00000000e+00    
           4.68517244e-01     5.32760799e-01     0.00000000e+00    
           4.68509018e-01     5.30844629e-01     0.00000000e+00    
           4.68960851e-01     5.28982460e-01     0.00000000e+00    
           4.69846308e-01     5.27283132e-01     0.00000000e+00    
           4.71113682e-01     5.25845945e-01     0.00000000e+00    
           4.72688884e-01     5.24754822e-01     0.00000000e+00    
           4.74479854e-01     5.24073541e-01     0.00000000e+00    
           4.78284091e-01     5.24073601e-01     0.00000000e+00    
           4.80075032e-01     5.24754822e-01     0.00000000e+00    
           4.81650203e-01     5.25845885e-01     0.00000000e+00    
           4.82917547e-01     5.27283013e-01     0.00000000e+00    
           4.83803004e-01     5.28982282e-01     0.00000000e+00    
           4.84254897e-01     5.30844331e-01     0.00000000e+00    
           4.84246761e-01     5.32760441e-01     0.00000000e+00    
           4.82887864e-01     4.67691004e-01     0.00000000e+00    
           4.81620818e-01     4.69110936e-01     0.00000000e+00    
           4.80051905e-01     4.70188022e-01     0.00000000e+00    
           4.78271484e-01     4.70860153e-01     0.00000000e+00    
           4.76382166e-01     4.71088618e-01     0.00000000e+00    
           4.74492878e-01     4.70860243e-01     0.00000000e+00    
           4.72712427e-01     4.70188200e-01     0.00000000e+00    
           4.71143454e-01     4.69111174e-01     0.00000000e+00    
           4.69876349e-01     4.67691302e-01     0.00000000e+00    
           4.88103986e-01     5.33086061e-01     0.00000000e+00    
           4.87431526e-01     5.31323195e-01     0.00000000e+00    
           4.87231195e-01     5.29447019e-01     0.00000000e+00    
           4.87516224e-01     5.27581930e-01     0.00000000e+00    
           4.88267750e-01     5.25851250e-01     0.00000000e+00    
           4.89436030e-01     5.24369657e-01     0.00000000e+00    
           4.90943670e-01     5.23235261e-01     0.00000000e+00    
           4.92690891e-01     5.22523046e-01     0.00000000e+00    
           4.96432930e-01     5.22523701e-01     0.00000000e+00    
           4.98180002e-01     5.23235798e-01     0.00000000e+00    
           4.99687493e-01     5.24370134e-01     0.00000000e+00    
           5.00855684e-01     5.25851607e-01     0.00000000e+00    
           5.01607120e-01     5.27582109e-01     0.00000000e+00    
           5.01892149e-01     5.29447079e-01     0.00000000e+00    
           5.01691818e-01     5.31323016e-01     0.00000000e+00    
           5.01019418e-01     5.33085763e-01     0.00000000e+00    
           4.98371124e-01     4.67269689e-01     0.00000000e+00    
           4.96539861e-01     4.68064904e-01     0.00000000e+00    
           4.94562000e-01     4.68336672e-01     0.00000000e+00    
           4.92584139e-01     4.68064904e-01     0.00000000e+00    
           4.90752876e-01     4.67269689e-01     0.00000000e+00    
           5.32269001e-01     4.75995690e-01     0.00000000e+00    
           5.31541944e-01     4.77750987e-01     0.00000000e+00    
           5.30385315e-01     4.79258329e-01     0.00000000e+00    
           5.28877974e-01     4.80414927e-01     0.00000000e+00    
[...]
      <PointData>
        <DataArray type="Float32" Name="Displacement" NumberOfComponents="3">
           1.16462994e-03     3.66888911e-04     0.00000000e+00    
           1.15295372e-03     4.78186470e-04     0.00000000e+00    
           8.04908050e-04     4.17325908e-04     0.00000000e+00    
           6.77412376e-04     4.04828083e-04     0.00000000e+00    
           7.51126849e-04     3.27446876e-04     0.00000000e+00    
           1.22741237e-03     4.04828083e-04     0.00000000e+00    
           1.35490810e-03     4.17325908e-04     0.00000000e+00    
           1.17496052e-03     4.75033274e-04     0.00000000e+00    
           1.16263796e-03     6.40039740e-04     0.00000000e+00    
           1.03566796e-03     5.47582691e-04     0.00000000e+00    
           6.26379042e-05     9.00397135e-05     0.00000000e+00    
           7.49605460e-05    -7.49667233e-05     0.00000000e+00    
           1.25854218e-03     4.67393984e-04     0.00000000e+00    
           1.24836492e-03     5.17877575e-04     0.00000000e+00    
           1.18121319e-03     4.81340074e-04     0.00000000e+00    
           1.48364939e-04    -3.21224288e-05     0.00000000e+00    
           1.58542171e-04    -8.26060059e-05     0.00000000e+00    
           6.55665353e-04     4.37065464e-05     0.00000000e+00    
           6.42261759e-04     1.88234873e-04     0.00000000e+00    
           1.38420553e-03     4.48840001e-04     0.00000000e+00    
           1.48185680e-03     4.57826362e-04     0.00000000e+00    
           1.41809566e-03     5.76622202e-04     0.00000000e+00    
           9.31856805e-04     4.57826362e-04     0.00000000e+00    
           8.34205595e-04     4.48840001e-04     0.00000000e+00    
           9.53575538e-04     3.33886564e-04     0.00000000e+00    
           9.38529498e-04     5.01242990e-04     0.00000000e+00    
           1.35538646e-03     4.96601628e-04     0.00000000e+00    
           1.33971183e-03     5.54051949e-04     0.00000000e+00    
           5.94225537e-04     1.42433390e-04     0.00000000e+00    
           5.78249805e-04     2.35369705e-04     0.00000000e+00    
           3.05911235e-04     1.91309868e-04     0.00000000e+00    
           2.14300686e-04     1.84064033e-04     0.00000000e+00    
           2.75070575e-04     6.41154184e-05     0.00000000e+00    
           7.64300697e-04     1.84064033e-04     0.00000000e+00    
           8.55911232e-04     1.91309868e-04     0.00000000e+00    
           5.78527339e-04     2.11729028e-04     0.00000000e+00    
           5.64952090e-04     3.22388165e-04     0.00000000e+00    
           3.76082928e-04     3.93588816e-05     0.00000000e+00    
           3.58180638e-04     1.48064937e-04     0.00000000e+00    
           7.73335050e-04     2.21645401e-04     0.00000000e+00    
           7.58758164e-04     2.85885355e-04     0.00000000e+00    
           1.09354267e-03     2.80185603e-04     0.00000000e+00    
           1.07884069e-03     3.83180770e-04     0.00000000e+00    
           7.27837731e-04     2.43951625e-04     0.00000000e+00    
           7.11847330e-04     3.33501521e-04     0.00000000e+00    
           7.88557285e-04     1.80901348e-04     0.00000000e+00    
           7.72681728e-04     2.85182789e-04     0.00000000e+00    
           1.09999999e-03     5.49999997e-04     0.00000000e+00    
           0.00000000e+00     0.00000000e+00     0.00000000e+00    
           5.49999997e-04     0.00000000e+00     0.00000000e+00    
           1.64999999e-03     5.49999997e-04     0.00000000e+00    
           1.18154637e-03     3.70905036e-04     0.00000000e+00    
           1.19699771e-03     3.78110155e-04     0.00000000e+00    
           1.20989548e-03     3.88322602e-04     0.00000000e+00    
           1.21934933e-03     4.00907011e-04     0.00000000e+00    
           1.22460804e-03     4.15437127e-04     0.00000000e+00    
           1.22534996e-03     4.30575688e-04     0.00000000e+00    
           1.22200418e-03     4.45226964e-04     0.00000000e+00    
           1.21401669e-03     4.58207098e-04     0.00000000e+00    
           1.20134884e-03     4.68521903e-04     0.00000000e+00    
           1.18630065e-03     4.75057517e-04     0.00000000e+00    
           1.16990763e-03     4.78353555e-04     0.00000000e+00    
           1.13647315e-03     4.74257424e-04     0.00000000e+00    
           1.12143648e-03     4.67320875e-04     0.00000000e+00    
           1.10895070e-03     4.57314920e-04     0.00000000e+00    
           1.09967764e-03     4.44894424e-04     0.00000000e+00    
           1.09456060e-03     4.30596847e-04     0.00000000e+00    
           1.09438924e-03     4.15927585e-04     0.00000000e+00    
           1.09847763e-03     4.02234233e-04     0.00000000e+00    
           1.10638165e-03     3.89778637e-04     0.00000000e+00    
           1.11805799e-03     3.78379220e-04     0.00000000e+00    
           1.13092619e-03     3.70884576e-04     0.00000000e+00    
           1.14681676e-03     3.66879802e-04     0.00000000e+00    
           6.74333307e-04     3.89733876e-04     0.00000000e+00    
           6.75749034e-04     3.74636526e-04     0.00000000e+00    
           6.80683763e-04     3.59828933e-04     0.00000000e+00    
           6.89778361e-04     3.46975925e-04     0.00000000e+00    
           7.02517573e-04     3.37081117e-04     0.00000000e+00    
           7.17634161e-04     3.30412993e-04     0.00000000e+00    
           7.34068104e-04     3.27506132e-04     0.00000000e+00    
           7.67887104e-04     3.30588431e-04     0.00000000e+00    
           7.83196941e-04     3.37364123e-04     0.00000000e+00    
           7.95988191e-04     3.47391819e-04     0.00000000e+00    
           8.05452466e-04     3.59922677e-04     0.00000000e+00    
           8.11360194e-04     3.73990217e-04     0.00000000e+00    
           8.13382794e-04     3.88668530e-04     0.00000000e+00    
           8.10945698e-04     4.03186044e-04     0.00000000e+00    
           1.34487671e-03     4.30532033e-04     0.00000000e+00    
           1.33079034e-03     4.40243108e-04     0.00000000e+00    
           1.31402316e-03     4.45760612e-04     0.00000000e+00    
           1.29610242e-03     4.47552738e-04     0.00000000e+00    
           1.27842836e-03     4.45422629e-04     0.00000000e+00    
           1.26145454e-03     4.39873402e-04     0.00000000e+00    
           1.24674139e-03     4.30875836e-04     0.00000000e+00    
           1.23529718e-03     4.18762414e-04     0.00000000e+00    
           1.13889854e-03     6.42774161e-04     0.00000000e+00    
           1.11493992e-03     6.41313032e-04     0.00000000e+00    
           1.09188107e-03     6.34940225e-04     0.00000000e+00    
           1.07155216e-03     6.23508240e-04     0.00000000e+00    
           1.05514575e-03     6.07819995e-04     0.00000000e+00    
           1.04344066e-03     5.89097792e-04     0.00000000e+00    
           1.03685167e-03     5.68695832e-04     0.00000000e+00    
           1.04019709e-03     5.26344695e-04     0.00000000e+00    
           1.05002965e-03     5.06300014e-04     0.00000000e+00    
           1.06519787e-03     4.89086611e-04     0.00000000e+00    
           1.08521781e-03     4.75983572e-04     0.00000000e+00    
           1.10783242e-03     4.67899430e-04     0.00000000e+00    
           1.13070977e-03     4.65187011e-04     0.00000000e+00    
           1.15341949e-03     4.67476406e-04     0.00000000e+00    
           9.46605869e-05    -6.31555376e-05     0.00000000e+00    
           1.11338857e-04    -4.76035420e-05     0.00000000e+00    
           1.23819715e-04    -2.90101634e-05     0.00000000e+00    
           1.31371227e-04    -8.67418294e-06     0.00000000e+00    
           1.32811445e-04     1.32018367e-05     0.00000000e+00    
           1.28926869e-04     3.44750006e-05     0.00000000e+00    
           1.19292839e-04     5.42447233e-05     0.00000000e+00    
           1.04076644e-04     7.06020510e-05     0.00000000e+00    
           8.44024253e-05     8.26571049e-05     0.00000000e+00    
           1.23771571e-03     5.21312817e-04     0.00000000e+00    
           1.22657989e-03     5.22273360e-04     0.00000000e+00    
           1.21557806e-03     5.21209382e-04     0.00000000e+00    
           1.20530336e-03     5.17662207e-04     0.00000000e+00    
           1.19620503e-03     5.12491795e-04     0.00000000e+00    
           1.18877762e-03     5.05852688e-04     0.00000000e+00    
           1.18367444e-03     4.98002977e-04     0.00000000e+00    
           1.18079735e-03     4.89868515e-04     0.00000000e+00    
           1.18489855e-03     4.72949294e-04     0.00000000e+00    
           1.19180302e-03     4.65821126e-04     0.00000000e+00    
           1.20087143e-03     4.60679817e-04     0.00000000e+00    
           1.21114845e-03     4.56962298e-04     0.00000000e+00    
           1.22157577e-03     4.54937282e-04     0.00000000e+00    
           1.23209623e-03     4.54734283e-04     0.00000000e+00    
           1.24191539e-03     4.56763257e-04     0.00000000e+00    
           1.25084212e-03     4.61131509e-04     0.00000000e+00    
           1.64552956e-04    -7.45389552e-05     0.00000000e+00    
           1.68063678e-04    -6.55993426e-05     0.00000000e+00    
           1.68536950e-04    -5.63341127e-05     0.00000000e+00    
           1.65157297e-04    -4.68479338e-05     0.00000000e+00    
           1.58190087e-04    -3.84173654e-05     0.00000000e+00    
           6.76508876e-04     4.74902881e-05     0.00000000e+00    
           6.95186085e-04     5.61564048e-05     0.00000000e+00    
           7.10561406e-04     6.88313885e-05     0.00000000e+00    
           7.21149030e-04     8.49780481e-05     0.00000000e+00    
           7.26899423e-04     1.03018261e-04     0.00000000e+00    
           7.27669045e-04     1.22248457e-04     0.00000000e+00    
           7.23534438e-04     1.41719051e-04     0.00000000e+00    
           7.14555033e-04     1.59316638e-04     0.00000000e+00    
           7.01156503e-04     1.73238717e-04     0.00000000e+00    
           6.83461491e-04     1.82873133e-04     0.00000000e+00    
           6.63208892e-04     1.88115780e-04     0.00000000e+00    
           6.21461368e-04     1.83947879e-04     0.00000000e+00    
           6.02445332e-04     1.75060224e-04     0.00000000e+00    
           5.86331298e-04     1.62181750e-04     0.00000000e+00    
           5.74390870e-04     1.45787519e-04     0.00000000e+00    
           5.67544426e-04     1.27029023e-04     0.00000000e+00    
           5.66127943e-04     1.07437634e-04     0.00000000e+00    
           5.70212782e-04     8.83268876e-05     0.00000000e+00    
           5.80314372e-04     7.11259127e-05     0.00000000e+00    
           5.95354417e-04     5.78951258e-05     0.00000000e+00    
           6.13705197e-04     4.92451436e-05     0.00000000e+00    
           6.34198484e-04     4.45142141e-05     0.00000000e+00    
           1.49426982e-03     4.71361534e-04     0.00000000e+00    
           1.50254113e-03     4.87419893e-04     0.00000000e+00    
           1.50630844e-03     5.05319797e-04     0.00000000e+00    
           1.50507758e-03     5.23452647e-04     0.00000000e+00    
           1.49870908e-03     5.40616398e-04     0.00000000e+00    
           1.48728269e-03     5.55270643e-04     0.00000000e+00    
           1.47203868e-03     5.65815950e-04     0.00000000e+00    
           1.45476277e-03     5.72959427e-04     0.00000000e+00    
           1.43653248e-03     5.76651830e-04     0.00000000e+00    
           1.40032894e-03     5.72574616e-04     0.00000000e+00    
           1.38357759e-03     5.64932881e-04     0.00000000e+00    
           1.36892055e-03     5.54028375e-04     0.00000000e+00    
           1.35745388e-03     5.40148001e-04     0.00000000e+00    
           1.35043112e-03     5.24236646e-04     0.00000000e+00    
           1.34831492e-03     5.07527846e-04     0.00000000e+00    
           1.35070737e-03     4.90670442e-04     0.00000000e+00    
           1.35758845e-03     4.74433968e-04     0.00000000e+00    
           1.36877643e-03     4.59901377e-04     0.00000000e+00    
           8.50433775e-04     4.42538236e-04     0.00000000e+00    
           8.67715629e-04     4.39563068e-04     0.00000000e+00    
           8.85127927e-04     4.39541589e-04     0.00000000e+00    
           9.02109605e-04     4.42732446e-04     0.00000000e+00    
           9.17979283e-04     4.48783394e-04     0.00000000e+00    
           9.75729374e-04     3.38348589e-04     0.00000000e+00    
           9.96090355e-04     3.47299356e-04     0.00000000e+00    
           1.01422728e-03     3.59986763e-04     0.00000000e+00    
           1.02812750e-03     3.76292330e-04     0.00000000e+00    
           1.03742408e-03     3.94852861e-04     0.00000000e+00    
           1.04139885e-03     4.14630864e-04     0.00000000e+00    
           1.03935285e-03     4.34617599e-04     0.00000000e+00    
           1.03242043e-03     4.54313093e-04     0.00000000e+00    
           1.02048903e-03     4.72008367e-04     0.00000000e+00    
           1.00366795e-03     4.86407662e-04     0.00000000e+00    
           9.83076752e-04     4.96108027e-04     0.00000000e+00    
           9.61094687e-04     5.00625931e-04     0.00000000e+00    
           9.16516292e-04     4.97001107e-04     0.00000000e+00    
           8.96317360e-04     4.88322345e-04     0.00000000e+00    
           8.79110827e-04     4.75591951e-04     0.00000000e+00    
           8.65937385e-04     4.59206669e-04     0.00000000e+00    
           8.57258914e-04     4.40187578e-04     0.00000000e+00    
           8.53482808e-04     4.19439835e-04     0.00000000e+00    
           8.54693353e-04     3.98492062e-04     0.00000000e+00    
           8.61054461e-04     3.79017118e-04     0.00000000e+00    
           8.73052806e-04     3.62036139e-04     0.00000000e+00    
           8.89643794e-04     3.48598114e-04     0.00000000e+00    
           9.09458729e-04     3.39230377e-04     0.00000000e+00    
           9.31154762e-04     3.34272190e-04     0.00000000e+00    
           1.36470655e-03     4.99281799e-04     0.00000000e+00    
           1.37286517e-03     5.04060299e-04     0.00000000e+00    
           1.37938280e-03     5.10499987e-04     0.00000000e+00    
           1.38349948e-03     5.18136658e-04     0.00000000e+00    
           1.38455571e-03     5.26503020e-04     0.00000000e+00    
           1.38239667e-03     5.34962455e-04     0.00000000e+00    
           1.37687661e-03     5.42529568e-04     0.00000000e+00    
           1.36884861e-03     5.48312673e-04     0.00000000e+00    
           1.35922479e-03     5.52187848e-04     0.00000000e+00    
           1.34940248e-03     5.53875871e-04     0.00000000e+00    
           1.33073609e-03     5.52157580e-04     0.00000000e+00    
           1.32263382e-03     5.47958014e-04     0.00000000e+00    
           1.31603563e-03     5.41754009e-04     0.00000000e+00    
           1.31147832e-03     5.33979852e-04     0.00000000e+00    
           1.30984839e-03     5.24594740e-04     0.00000000e+00    
           1.31143536e-03     5.14724641e-04     0.00000000e+00    
           1.31655124e-03     5.05989126e-04     0.00000000e+00    
           1.32533151e-03     4.99895832e-04     0.00000000e+00    
           1.33497675e-03     4.97031608e-04     0.00000000e+00    
           1.34515262e-03     4.96135268e-04     0.00000000e+00    
           6.08635659e-04     1.45176353e-04     0.00000000e+00    
           6.21357351e-04     1.50890774e-04     0.00000000e+00    
           6.31662493e-04     1.59864227e-04     0.00000000e+00    
           6.38654863e-04     1.71421314e-04     0.00000000e+00    
           6.42316183e-04     1.84044256e-04     0.00000000e+00    
           6.42680272e-04     1.96561785e-04     0.00000000e+00    
           6.39481004e-04     2.08214115e-04     0.00000000e+00    
           6.31862727e-04     2.18732821e-04     0.00000000e+00    
           6.20308390e-04     2.26109914e-04     0.00000000e+00    
           6.07434544e-04     2.30957172e-04     0.00000000e+00    
           5.93153993e-04     2.34461389e-04     0.00000000e+00    
           5.63811627e-04     2.32886043e-04     0.00000000e+00    
           5.51030214e-04     2.26928256e-04     0.00000000e+00    
           5.40691428e-04     2.18112880e-04     0.00000000e+00    
           5.33374900e-04     2.07242934e-04     0.00000000e+00    
           5.29533077e-04     1.95168483e-04     0.00000000e+00    
           5.29354729e-04     1.82597360e-04     0.00000000e+00    
           5.33357961e-04     1.70458967e-04     0.00000000e+00    
           5.41161106e-04     1.59703894e-04     0.00000000e+00    
           5.52283716e-04     1.51574903e-04     0.00000000e+00    
           5.65242779e-04     1.45931321e-04     0.00000000e+00    
           5.79395099e-04     1.43073208e-04     0.00000000e+00    
           2.01878211e-04     1.71421998e-04     0.00000000e+00    
           1.93206753e-04     1.56460883e-04     0.00000000e+00    
           1.88927836e-04     1.39468117e-04     0.00000000e+00    
           1.89353494e-04     1.21126228e-04     0.00000000e+00    
           1.94571359e-04     1.03544844e-04     0.00000000e+00    
           2.05256874e-04     8.78126302e-05     0.00000000e+00    
           2.20449103e-04     7.60084586e-05     0.00000000e+00    
           2.37908855e-04     6.90930174e-05     0.00000000e+00    
           2.56230938e-04     6.47624038e-05     0.00000000e+00    
           2.93310673e-04     6.79425721e-05     0.00000000e+00    
           3.09431314e-04     7.58292008e-05     0.00000000e+00    
           3.22909385e-04     8.74144243e-05     0.00000000e+00    
           3.33460863e-04     1.02031132e-04     0.00000000e+00    
           3.40609637e-04     1.18571363e-04     0.00000000e+00    
           3.43171007e-04     1.35875729e-04     0.00000000e+00    
           3.40870116e-04     1.52804045e-04     0.00000000e+00    
           3.33526463e-04     1.68427854e-04     0.00000000e+00    
           3.21408210e-04     1.81569427e-04     0.00000000e+00    
           8.37909465e-04     1.97328409e-04     0.00000000e+00    
           8.18643253e-04     1.99789676e-04     0.00000000e+00    
           7.98959401e-04     1.99107773e-04     0.00000000e+00    
           7.80424045e-04     1.93706524e-04     0.00000000e+00    
           5.95026417e-04     2.14654414e-04     0.00000000e+00    
           6.09642884e-04     2.21441951e-04     0.00000000e+00    
           6.21313520e-04     2.31577695e-04     0.00000000e+00    
           6.29410031e-04     2.44009963e-04     0.00000000e+00    
           6.33907621e-04     2.58046872e-04     0.00000000e+00    
           6.34257682e-04     2.73131969e-04     0.00000000e+00    
           6.30432449e-04     2.88289360e-04     0.00000000e+00    
           6.22268184e-04     3.01783177e-04     0.00000000e+00    
           6.10222109e-04     3.12097138e-04     0.00000000e+00    
           5.96188591e-04     3.18950391e-04     0.00000000e+00    
           5.80930850e-04     3.22172040e-04     0.00000000e+00    
           5.48958778e-04     3.18920909e-04     0.00000000e+00    
           5.34099061e-04     3.11686861e-04     0.00000000e+00    
           5.21582493e-04     3.01160180e-04     0.00000000e+00    
           5.12370782e-04     2.87861098e-04     0.00000000e+00    
           5.07034943e-04     2.73180252e-04     0.00000000e+00    
           5.05742617e-04     2.58294807e-04     0.00000000e+00    
           5.08702651e-04     2.44042385e-04     0.00000000e+00    
           5.16678905e-04     2.31446786e-04     0.00000000e+00    
           5.29059966e-04     2.21492330e-04     0.00000000e+00    