<?xml version="1.0"?>
<VTKFile type="UnstructuredGrid" version="0.1">
  <UnstructuredGrid>
    <Piece NumberOfPoints="1034" NumberOfCells="1614">
      <Points>
        <DataArray type="Float32" NumberOfComponents="3">
           5.21582007e-01     5.11657000e-01     0.00000000e+00    
           5.07319987e-01     5.11657000e-01     0.00000000e+00    
           4.65243995e-01     5.17907977e-01     0.00000000e+00    
           4.65243995e-01     5.04921973e-01     0.00000000e+00    
           4.75246996e-01     5.11415005e-01     0.00000000e+00    
           5.33852994e-01     5.04921973e-01     0.00000000e+00    
           5.33852994e-01     5.17907977e-01     0.00000000e+00    
           4.83779997e-01     5.34618974e-01     0.00000000e+00    
           4.68984991e-01     5.34618974e-01     0.00000000e+00    
           4.76381987e-01     5.23841977e-01     0.00000000e+00    
           4.68984991e-01     4.66010004e-01     0.00000000e+00    
           4.83779997e-01     4.66010004e-01     0.00000000e+00    
           4.99920011e-01     5.34618974e-01     0.00000000e+00    
           4.89203990e-01     5.34618974e-01     0.00000000e+00    
           4.94562000e-01     5.22280991e-01     0.00000000e+00    
           4.89203990e-01     4.66010004e-01     0.00000000e+00    
           4.99920011e-01     4.66010004e-01     0.00000000e+00    
           5.32517016e-01     4.74112004e-01     0.00000000e+00    
           5.17961025e-01     4.74112004e-01     0.00000000e+00    
           5.33852994e-01     5.19801974e-01     0.00000000e+00    
           5.33852994e-01     5.29603004e-01     0.00000000e+00    
           5.19536972e-01     5.24702013e-01     0.00000000e+00    
           4.65243995e-01     5.29603004e-01     0.00000000e+00    
           4.65243995e-01     5.19801974e-01     0.00000000e+00    
           4.92487997e-01     5.17117977e-01     0.00000000e+00    
           4.76904988e-01     5.17117977e-01     0.00000000e+00    
           5.17996013e-01     5.27033985e-01     0.00000000e+00    
           5.04473984e-01     5.27033985e-01     0.00000000e+00    
           5.08446991e-01     4.83435005e-01     0.00000000e+00    
           4.94414002e-01     4.83435005e-01     0.00000000e+00    
           4.65243995e-01     4.83101994e-01     0.00000000e+00    
           4.65243995e-01     4.74415004e-01     0.00000000e+00    
           4.78336990e-01     4.78758007e-01     0.00000000e+00    
           5.33852994e-01     4.74415004e-01     0.00000000e+00    
           5.33852994e-01     4.83101994e-01     0.00000000e+00    
           4.80668008e-01     4.95810986e-01     0.00000000e+00    
           4.66084987e-01     4.95810986e-01     0.00000000e+00    
           4.93930012e-01     4.79214013e-01     0.00000000e+00    
           4.78967011e-01     4.79214013e-01     0.00000000e+00    
           5.09284973e-01     4.97658014e-01     0.00000000e+00    
           4.95503992e-01     4.97658014e-01     0.00000000e+00    
           5.33011973e-01     5.01751006e-01     0.00000000e+00    
           5.17829001e-01     5.01751006e-01     0.00000000e+00    
           4.95451003e-01     5.00564992e-01     0.00000000e+00    
           4.80922014e-01     5.00564992e-01     0.00000000e+00    
           5.25367022e-01     4.88312006e-01     0.00000000e+00    
           5.09521008e-01     4.88312006e-01     0.00000000e+00    
           4.65243995e-01     5.34618974e-01     0.00000000e+00    
           4.65243995e-01     4.66010004e-01     0.00000000e+00    
           5.33852994e-01     4.66010004e-01     0.00000000e+00    
           5.33852994e-01     5.34618974e-01     0.00000000e+00    
           5.21338999e-01     5.13502657e-01     0.00000000e+00    
           5.20626605e-01     5.15222490e-01     0.00000000e+00    
           5.19493401e-01     5.16699374e-01     0.00000000e+00    
           5.18016517e-01     5.17832637e-01     0.00000000e+00    
           5.16296625e-01     5.18545032e-01     0.00000000e+00    
           5.14451027e-01     5.18787980e-01     0.00000000e+00    
           5.12605369e-01     5.18545032e-01     0.00000000e+00    
           5.10885477e-01     5.17832637e-01     0.00000000e+00    
           5.09408593e-01     5.16699374e-01     0.00000000e+00    
           5.08275390e-01     5.15222490e-01     0.00000000e+00    
           5.07562995e-01     5.13502657e-01     0.00000000e+00    
           5.07562995e-01     5.09811342e-01     0.00000000e+00    
           5.08275390e-01     5.08091509e-01     0.00000000e+00    
           5.09408593e-01     5.06614625e-01     0.00000000e+00    
           5.10885477e-01     5.05481362e-01     0.00000000e+00    
           5.12605369e-01     5.04768968e-01     0.00000000e+00    
           5.14451027e-01     5.04526019e-01     0.00000000e+00    
           5.16296625e-01     5.04768968e-01     0.00000000e+00    
           5.18016517e-01     5.05481362e-01     0.00000000e+00    
           5.19493401e-01     5.06614625e-01     0.00000000e+00    
           5.20626605e-01     5.08091509e-01     0.00000000e+00    
           5.21338999e-01     5.09811342e-01     0.00000000e+00    
           4.66931671e-01     5.04409373e-01     0.00000000e+00    
           4.68693614e-01     5.04328012e-01     0.00000000e+00    
           4.70421344e-01     5.04682958e-01     0.00000000e+00    
           4.72008497e-01     5.05452335e-01     0.00000000e+00    
           4.73357379e-01     5.06588817e-01     0.00000000e+00    
           4.74384934e-01     5.08022368e-01     0.00000000e+00    
           4.75027919e-01     5.09664834e-01     0.00000000e+00    
           4.75028187e-01     5.13165236e-01     0.00000000e+00    
           4.74385172e-01     5.14807761e-01     0.00000000e+00    
           4.73357558e-01     5.16241372e-01     0.00000000e+00    
           4.72008646e-01     5.17377913e-01     0.00000000e+00    
           4.70421433e-01     5.18147290e-01     0.00000000e+00    
           4.68693614e-01     5.18502235e-01     0.00000000e+00    
           4.66931641e-01     5.18420875e-01     0.00000000e+00    
           5.32303810e-01     5.16964078e-01     0.00000000e+00    
           5.31043947e-01     5.15658796e-01     0.00000000e+00    
           5.30155540e-01     5.14077127e-01     0.00000000e+00    
           5.29696345e-01     5.12322068e-01     0.00000000e+00    
           5.29696345e-01     5.10507941e-01     0.00000000e+00    
           5.30155540e-01     5.08752882e-01     0.00000000e+00    
           5.31043947e-01     5.07171214e-01     0.00000000e+00    
           5.32303810e-01     5.05865932e-01     0.00000000e+00    
           4.68517244e-01     5.32760799e-01     0.00000000e+00    
           4.68509018e-01     5.30844629e-01     0.00000000e+00    
           4.68960851e-01     5.28982460e-01     0.00000000e+00    
           4.69846308e-01     5.27283132e-01     0.00000000e+00    
           4.71113682e-01     5.25845945e-01     0.00000000e+00    
           4.72688884e-01     5.24754822e-01     0.00000000e+00    
           4.74479854e-01     5.24073541e-01     0.00000000e+00    
           4.78284091e-01     5.24073601e-01     0.00000000e+00    
           4.80075032e-01     5.24754822e-01     0.00000000e+00    
           4.81650203e-01     5.25845885e-01     0.00000000e+00    
           4.82917547e-01     5.27283013e-01     0.00000000e+00    
           4.83803004e-01     5.28982282e-01     0.00000000e+00    
           4.84254897e-01     5.30844331e-01     0.00000000e+00    
           4.84246761e-01     5.32760441e-01     0.00000000e+00    
           4.82887864e-01     4.67691004e-01     0.00000000e+00    
           4.81620818e-01     4.69110936e-01     0.00000000e+00    
           4.80051905e-01     4.70188022e-01     0.00000000e+00    
           4.78271484e-01     4.70860153e-01     0.00000000e+00    
           4.76382166e-01     4.71088618e-01     0.00000000e+00    
           4.74492878e-01     4.70860243e-01     0.00000000e+00    
           4.72712427e-01     4.70188200e-01     0.00000000e+00    
           4.71143454e-01     4.69111174e-01     0.00000000e+00    
           4.69876349e-01     4.67691302e-01     0.00000000e+00    
           4.88103986e-01     5.33086061e-01     0.00000000e+00    
           4.87431526e-01     5.31323195e-01     0.00000000e+00    
           4.87231195e-01     5.29447019e-01     0.00000000e+00    
           4.87516224e-01     5.27581930e-01     0.00000000e+00    
           4.88267750e-01     5.25851250e-01     0.00000000e+00    
           4.89436030e-01     5.24369657e-01     0.00000000e+00    
           4.90943670e-01     5.23235261e-01     0.00000000e+00    
           4.92690891e-01     5.22523046e-01     0.00000000e+00    
           4.96432930e-01     5.22523701e-01     0.00000000e+00    
           4.98180002e-01     5.23235798e-01     0.00000000e+00    
           4.99687493e-01     5.24370134e-01     0.00000000e+00    
           5.00855684e-01     5.25851607e-01     0.00000000e+00    
           5.01607120e-01     5.27582109e-01     0.00000000e+00    
           5.01892149e-01     5.29447079e-01     0.00000000e+00    
           5.01691818e-01     5.31323016e-01     0.00000000e+00    
           5.01019418e-01     5.33085763e-01     0.00000000e+00    
           4.98371124e-01     4.67269689e-01     0.00000000e+00    
           4.96539861e-01     4.68064904e-01     0.00000000e+00    
           4.94562000e-01     4.68336672e-01     0.00000000e+00    
           4.92584139e-01     4.68064904e-01     0.00000000e+00    
           4.90752876e-01     4.67269689e-01     0.00000000e+00    
           5.32269001e-01     4.75995690e-01     0.00000000e+00    
           5.31541944e-01     4.77750987e-01     0.00000000e+00    
           5.30385315e-01     4.79258329e-01     0.00000000e+00    
           5.28877974e-01     4.80414927e-01     0.00000000e+00    
[...]
      <PointData>
        <DataArray type="Float32" Name="Displacement" NumberOfComponents="3">
           1.82532554e-03     5.81465662e-04     0.00000000e+00    
           1.81111763e-03     7.50077190e-04     0.00000000e+00    
           1.25678082e-03     6.55718788e-04     0.00000000e+00    
           1.05071638e-03     6.41618157e-04     0.00000000e+00    
           1.16453087e-03     5.02923911e-04     0.00000000e+00    
           1.92571641e-03     6.41618157e-04     0.00000000e+00    
           2.13178084e-03     6.55718788e-04     0.00000000e+00    
           1.86996744e-03     7.68044731e-04     0.00000000e+00    
           1.85516861e-03     1.03723479e-03     0.00000000e+00    
           1.65189360e-03     8.91017029e-04     0.00000000e+00    
           1.05168598e-04     1.62234748e-04     0.00000000e+00    
           1.19967415e-04    -1.06955245e-04     0.00000000e+00    
           2.00741901e-03     7.73658277e-04     0.00000000e+00    
           1.99487153e-03     8.62734509e-04     0.00000000e+00    
           1.88561727e-03     8.05154967e-04     0.00000000e+00    
           2.44871422e-04    -1.22655001e-05     0.00000000e+00    
           2.57418986e-04    -1.01341735e-04     0.00000000e+00    
           1.00789813e-03     5.33786006e-05     0.00000000e+00    
           9.92865069e-04     2.72439676e-04     0.00000000e+00    
           2.16948637e-03     6.94463262e-04     0.00000000e+00    
           2.32069194e-03     7.05184066e-04     0.00000000e+00    
           2.22859043e-03     9.04443034e-04     0.00000000e+00    
           1.44569203e-03     7.05184066e-04     0.00000000e+00    
           1.29448646e-03     6.94463262e-04     0.00000000e+00    
           1.51095644e-03     5.39118540e-04     0.00000000e+00    
           1.49442768e-03     8.21870111e-04     0.00000000e+00    
           2.11163796e-03     7.51950545e-04     0.00000000e+00    
           2.09496659e-03     8.73523881e-04     0.00000000e+00    
           9.30114649e-04     2.17929075e-04     0.00000000e+00    
           9.13815340e-04     3.85573338e-04     0.00000000e+00    
           4.60596348e-04     3.01550259e-04     0.00000000e+00    
           3.21147061e-04     2.93345278e-04     0.00000000e+00    
           4.06596053e-04     9.93251524e-05     0.00000000e+00    
           1.19614706e-03     2.93345278e-04     0.00000000e+00    
           1.33559632e-03     3.01550259e-04     0.00000000e+00    
           8.83635075e-04     3.37035832e-04     0.00000000e+00    
           8.68388859e-04     5.16715343e-04     0.00000000e+00    
           5.81382483e-04     8.02671275e-05     0.00000000e+00    
           5.63663489e-04     2.70231307e-04     0.00000000e+00    
           1.20841386e-03     3.35781457e-04     0.00000000e+00    
           1.19219359e-03     4.59684728e-04     0.00000000e+00    
           1.71996641e-03     4.52672859e-04     0.00000000e+00    
           1.70331355e-03     6.10057206e-04     0.00000000e+00    
           1.15803280e-03     4.07949468e-04     0.00000000e+00    
           1.14084850e-03     5.77624596e-04     0.00000000e+00    
           1.21026381e-03     2.42390204e-04     0.00000000e+00    
           1.19245949e-03     4.15360293e-04     0.00000000e+00    
           1.75000005e-03     8.75000027e-04     0.00000000e+00    
           0.00000000e+00     0.00000000e+00     0.00000000e+00    
           8.75000027e-04     0.00000000e+00     0.00000000e+00    
           2.62499996e-03     8.75000027e-04     0.00000000e+00    
           1.84935855e-03     5.86230599e-04     0.00000000e+00    
           1.87136524e-03     5.96177124e-04     0.00000000e+00    
           1.88987551e-03     6.10976655e-04     0.00000000e+00    
           1.90370379e-03     6.29726273e-04     0.00000000e+00    
           1.91169931e-03     6.51453505e-04     0.00000000e+00    
           1.91328896e-03     6.74299372e-04     0.00000000e+00    
           1.90878240e-03     6.96603209e-04     0.00000000e+00    
           1.89755019e-03     7.16796552e-04     0.00000000e+00    
           1.87969010e-03     7.32985907e-04     0.00000000e+00    
           1.85833313e-03     7.43526965e-04     0.00000000e+00    
           1.83516880e-03     7.49301107e-04     0.00000000e+00    
           1.78747659e-03     7.45268597e-04     0.00000000e+00    
           1.76578935e-03     7.35315727e-04     0.00000000e+00    
           1.74769212e-03     7.20419281e-04     0.00000000e+00    
           1.73428899e-03     7.01582234e-04     0.00000000e+00    
           1.72667077e-03     6.80043711e-04     0.00000000e+00    
           1.72556657e-03     6.57700642e-04     0.00000000e+00    
           1.73071795e-03     6.36486744e-04     0.00000000e+00    
           1.74181990e-03     6.17493642e-04     0.00000000e+00    
           1.75844703e-03     6.00531814e-04     0.00000000e+00    
           1.77713181e-03     5.88894414e-04     0.00000000e+00    
           1.80005154e-03     5.82331268e-04     0.00000000e+00    
           1.04433764e-03     6.15765282e-04     0.00000000e+00    
           1.04516244e-03     5.89225034e-04     0.00000000e+00    
           1.05260522e-03     5.63657028e-04     0.00000000e+00    
           1.06701721e-03     5.41071349e-04     0.00000000e+00    
           1.08740106e-03     5.23265102e-04     0.00000000e+00    
           1.11123885e-03     5.10879909e-04     0.00000000e+00    
           1.13713776e-03     5.04395168e-04     0.00000000e+00    
           1.19181769e-03     5.07426914e-04     0.00000000e+00    
           1.21707562e-03     5.18256682e-04     0.00000000e+00    
           1.23864005e-03     5.34726423e-04     0.00000000e+00    
           1.25530944e-03     5.55703708e-04     0.00000000e+00    
           1.26604096e-03     5.79892599e-04     0.00000000e+00    
           1.27015577e-03     6.05735288e-04     0.00000000e+00    
           1.26658822e-03     6.31380419e-04     0.00000000e+00    
           2.11560237e-03     6.78192824e-04     0.00000000e+00    
           2.09315633e-03     6.95223571e-04     0.00000000e+00    
           2.06662784e-03     7.05780636e-04     0.00000000e+00    
           2.03840923e-03     7.10293767e-04     0.00000000e+00    
           2.01021065e-03     7.08229141e-04     0.00000000e+00    
           1.98296504e-03     6.99856435e-04     0.00000000e+00    
           1.95878558e-03     6.85402076e-04     0.00000000e+00    
           1.93937798e-03     6.65454660e-04     0.00000000e+00    
           1.81900361e-03     1.04328489e-03     0.00000000e+00    
           1.78175140e-03     1.04206987e-03     0.00000000e+00    
           1.74565031e-03     1.03249098e-03     0.00000000e+00    
           1.71330525e-03     1.01472379e-03     0.00000000e+00    
           1.68651098e-03     9.90021043e-04     0.00000000e+00    
           1.66666484e-03     9.59970814e-04     0.00000000e+00    
           1.65492541e-03     9.26405832e-04     0.00000000e+00    
           1.65839563e-03     8.55668855e-04     0.00000000e+00    
           1.67362834e-03     8.22818780e-04     0.00000000e+00    
           1.69719406e-03     7.94547028e-04     0.00000000e+00    
           1.72817439e-03     7.72958447e-04     0.00000000e+00    
           1.76324614e-03     7.59495364e-04     0.00000000e+00    
           1.79932103e-03     7.54412031e-04     0.00000000e+00    
           1.83563563e-03     7.57110945e-04     0.00000000e+00    
           1.51093525e-04    -8.89043949e-05     0.00000000e+00    
           1.77317619e-04    -6.43547319e-05     0.00000000e+00    
           1.96918088e-04    -3.44804539e-05     0.00000000e+00    
           2.08855621e-04    -1.22144525e-06     0.00000000e+00    
           2.11555278e-04     3.44033324e-05     0.00000000e+00    
           2.05684672e-04     6.89988810e-05     0.00000000e+00    
           1.91056621e-04     1.01197598e-04     0.00000000e+00    
           1.67928141e-04     1.28448795e-04     0.00000000e+00    
           1.38203235e-04     1.48983498e-04     0.00000000e+00    
           1.97858922e-03     8.69303360e-04     0.00000000e+00    
           1.96166849e-03     8.72099481e-04     0.00000000e+00    
           1.94445194e-03     8.71679687e-04     0.00000000e+00    
           1.92791503e-03     8.67333612e-04     0.00000000e+00    
           1.91313168e-03     8.59646068e-04     0.00000000e+00    
           1.90077117e-03     8.48836207e-04     0.00000000e+00    
           1.89170253e-03     8.35512416e-04     0.00000000e+00    
           1.88626465e-03     8.20851244e-04     0.00000000e+00    
           1.88985863e-03     7.89558864e-04     0.00000000e+00    
           1.89945824e-03     7.75701308e-04     0.00000000e+00    
           1.91300211e-03     7.65381148e-04     0.00000000e+00    
           1.92885916e-03     7.58000184e-04     0.00000000e+00    
           1.94542611e-03     7.54004752e-04     0.00000000e+00    
           1.96269038e-03     7.53231929e-04     0.00000000e+00    
           1.97939575e-03     7.56480615e-04     0.00000000e+00    
           1.99452904e-03     7.63444346e-04     0.00000000e+00    
           2.67669355e-04    -8.77214043e-05     0.00000000e+00    
           2.73801910e-04    -7.21491233e-05     0.00000000e+00    
           2.75051163e-04    -5.56372215e-05     0.00000000e+00    
           2.70316668e-04    -3.86765169e-05     0.00000000e+00    
           2.59818247e-04    -2.36276592e-05     0.00000000e+00    
           1.03825238e-03     5.85806993e-05     0.00000000e+00    
           1.06602802e-03     7.11538087e-05     0.00000000e+00    
           1.08934124e-03     9.03042674e-05     0.00000000e+00    
           1.10638817e-03     1.14680915e-04     0.00000000e+00    
           1.11607555e-03     1.42230565e-04     0.00000000e+00    
           1.11782749e-03     1.71344989e-04     0.00000000e+00    
           1.11172616e-03     2.00137569e-04     0.00000000e+00    
           1.09853526e-03     2.26442746e-04     0.00000000e+00    
           1.07866037e-03     2.47756281e-04     0.00000000e+00    
           1.05270382e-03     2.62825983e-04     0.00000000e+00    
           1.02324411e-03     2.71330093e-04     0.00000000e+00    
           9.62703605e-04     2.66873249e-04     0.00000000e+00    
           9.35020216e-04     2.54309358e-04     0.00000000e+00    
           9.11522424e-04     2.35352243e-04     0.00000000e+00    
           8.93978169e-04     2.11062244e-04     0.00000000e+00    
           8.83697008e-04     1.83328419e-04     0.00000000e+00    
           8.81141459e-04     1.54156951e-04     0.00000000e+00    
           8.86568218e-04     1.25278457e-04     0.00000000e+00    
           9.00779502e-04     9.87689637e-05     0.00000000e+00    
           9.22192878e-04     7.78455433e-05     0.00000000e+00    
           9.48136905e-04     6.37555713e-05     0.00000000e+00    
           9.77089396e-04     5.54856269e-05     0.00000000e+00    
           2.34092679e-03     7.26897968e-04     0.00000000e+00    
           2.35494995e-03     7.52700376e-04     0.00000000e+00    
           2.36201566e-03     7.81099428e-04     0.00000000e+00    
           2.36121286e-03     8.10165657e-04     0.00000000e+00    
           2.35246029e-03     8.38209700e-04     0.00000000e+00    
           2.33585481e-03     8.63164256e-04     0.00000000e+00    
           2.31309119e-03     8.82086926e-04     0.00000000e+00    
           2.28683185e-03     8.95445235e-04     0.00000000e+00    
           2.25836341e-03     9.03150998e-04     0.00000000e+00    
           2.19933642e-03     8.99001141e-04     0.00000000e+00    
           2.17223167e-03     8.87142960e-04     0.00000000e+00    
           2.14883545e-03     8.69363546e-04     0.00000000e+00    
           2.13048328e-03     8.46530776e-04     0.00000000e+00    
           2.11864547e-03     8.20144895e-04     0.00000000e+00    
           2.11428967e-03     7.92008766e-04     0.00000000e+00    
           2.11749971e-03     7.63729215e-04     0.00000000e+00    
           2.12830701e-03     7.37000257e-04     0.00000000e+00    
           2.14574509e-03     7.13050598e-04     0.00000000e+00    
           1.31923310e-03     6.83399034e-04     0.00000000e+00    
           1.34545949e-03     6.77504111e-04     0.00000000e+00    
           1.37207157e-03     6.76637166e-04     0.00000000e+00    
           1.39849680e-03     6.81133475e-04     0.00000000e+00    
           1.42352073e-03     6.90613058e-04     0.00000000e+00    
           1.54647813e-03     5.45057701e-04     0.00000000e+00    
           1.57946476e-03     5.58828004e-04     0.00000000e+00    
           1.60856848e-03     5.79465355e-04     0.00000000e+00    
           1.63157738e-03     6.06234826e-04     0.00000000e+00    
           1.64733024e-03     6.37369463e-04     0.00000000e+00    
           1.65487872e-03     6.71075133e-04     0.00000000e+00    
           1.65308977e-03     7.05705199e-04     0.00000000e+00    
           1.64267805e-03     7.39262439e-04     0.00000000e+00    
           1.62401563e-03     7.69259525e-04     0.00000000e+00    
           1.59728178e-03     7.93864310e-04     0.00000000e+00    
           1.56487839e-03     8.10967467e-04     0.00000000e+00    
           1.53025181e-03     8.19850597e-04     0.00000000e+00    
           1.45881006e-03     8.15692358e-04     0.00000000e+00    
           1.42562296e-03     8.01819377e-04     0.00000000e+00    
           1.39685848e-03     7.80679460e-04     0.00000000e+00    
           1.37422571e-03     7.53362547e-04     0.00000000e+00    
           1.35912898e-03     7.21548568e-04     0.00000000e+00    
           1.35255314e-03     6.87178224e-04     0.00000000e+00    
           1.35425187e-03     6.52614399e-04     0.00000000e+00    
           1.36443437e-03     6.19828294e-04     0.00000000e+00    
           1.38340122e-03     5.90648036e-04     0.00000000e+00    
           1.40965171e-03     5.67354611e-04     0.00000000e+00    
           1.44096802e-03     5.50754427e-04     0.00000000e+00    
           1.47527922e-03     5.41262445e-04     0.00000000e+00    
           2.13017361e-03     7.55989051e-04     0.00000000e+00    
           2.14670831e-03     7.64628116e-04     0.00000000e+00    
           2.16001645e-03     7.77264824e-04     0.00000000e+00    
           2.16901046e-03     7.92930485e-04     0.00000000e+00    
           2.17270409e-03     8.10381491e-04     0.00000000e+00    
           2.17083702e-03     8.28329998e-04     0.00000000e+00    
           2.16265232e-03     8.45174771e-04     0.00000000e+00    
           2.14905129e-03     8.58688960e-04     0.00000000e+00    
           2.13204720e-03     8.68089963e-04     0.00000000e+00    
           2.11381936e-03     8.72708391e-04     0.00000000e+00    
           2.07671127e-03     8.69647600e-04     0.00000000e+00    
           2.06028949e-03     8.61161447e-04     0.00000000e+00    
           2.04692222e-03     8.48593831e-04     0.00000000e+00    
           2.03761924e-03     8.32918799e-04     0.00000000e+00    
           2.03379965e-03     8.14788218e-04     0.00000000e+00    
           2.03578337e-03     7.96205306e-04     0.00000000e+00    
           2.04377738e-03     7.78957445e-04     0.00000000e+00    
           2.05792813e-03     7.65519741e-04     0.00000000e+00    
           2.07444164e-03     7.57085974e-04     0.00000000e+00    
           2.09249975e-03     7.52544147e-04     0.00000000e+00    
           9.53790033e-04     2.22274917e-04     0.00000000e+00    
           9.75220522e-04     2.32240025e-04     0.00000000e+00    
           9.92981484e-04     2.47543969e-04     0.00000000e+00    
           1.00558635e-03     2.66779942e-04     0.00000000e+00    
           1.01273495e-03     2.88223790e-04     0.00000000e+00    
           1.01425196e-03     3.10423056e-04     0.00000000e+00    
           1.00976811e-03     3.31816875e-04     0.00000000e+00    
           9.98509699e-04     3.51534865e-04     0.00000000e+00    
           9.80930519e-04     3.66408145e-04     0.00000000e+00    
           9.60616337e-04     3.76749347e-04     0.00000000e+00    
           9.37879377e-04     3.83601058e-04     0.00000000e+00    
           8.90021038e-04     3.81579041e-04     0.00000000e+00    
           8.68456205e-04     3.71653558e-04     0.00000000e+00    
           8.50530341e-04     3.56752367e-04     0.00000000e+00    
           8.37325410e-04     3.38017242e-04     0.00000000e+00    
           8.29642056e-04     3.16807651e-04     0.00000000e+00    
           8.27996642e-04     2.94351921e-04     0.00000000e+00    
           8.33372469e-04     2.72145408e-04     0.00000000e+00    
           8.45236820e-04     2.52144499e-04     0.00000000e+00    
           8.62700341e-04     2.36604232e-04     0.00000000e+00    
           8.83378962e-04     2.25546464e-04     0.00000000e+00    
           9.06069705e-04     2.19485824e-04     0.00000000e+00    
           3.01160297e-04     2.73244979e-04     0.00000000e+00    
           2.86818657e-04     2.49065401e-04     0.00000000e+00    
           2.79549306e-04     2.21829512e-04     0.00000000e+00    
           2.79925705e-04     1.92991865e-04     0.00000000e+00    
           2.87597650e-04     1.65397607e-04     0.00000000e+00    
           3.02907079e-04     1.40543765e-04     0.00000000e+00    
           3.24805034e-04     1.21090037e-04     0.00000000e+00    
           3.50342831e-04     1.08758475e-04     0.00000000e+00    
           3.77725897e-04     1.00996367e-04     0.00000000e+00    
           4.35134221e-04     1.04702347e-04     0.00000000e+00    
           4.61321237e-04     1.16650212e-04     0.00000000e+00    
           4.83549025e-04     1.34533184e-04     0.00000000e+00    
           5.00575232e-04     1.57070623e-04     0.00000000e+00    
           5.11487597e-04     1.82807431e-04     0.00000000e+00    
           5.15641179e-04     2.10209080e-04     0.00000000e+00    
           5.12425031e-04     2.37566768e-04     0.00000000e+00    
           5.01630479e-04     2.63241585e-04     0.00000000e+00    
           4.83611453e-04     2.85080401e-04     0.00000000e+00    
           1.30891218e-03     3.12297168e-04     0.00000000e+00    
           1.27996155e-03     3.17519763e-04     0.00000000e+00    
           1.25005539e-03     3.16651392e-04     0.00000000e+00    
           1.22148229e-03     3.08442599e-04     0.00000000e+00    
           9.09124152e-04     3.41293169e-04     0.00000000e+00    
           9.32300347e-04     3.51796771e-04     0.00000000e+00    
           9.51621158e-04     3.67741624e-04     0.00000000e+00    
           9.65899264e-04     3.87807901e-04     0.00000000e+00    
           9.74087452e-04     4.10756649e-04     0.00000000e+00    
           9.75425879e-04     4.35315713e-04     0.00000000e+00    
           9.69767338e-04     4.59679781e-04     0.00000000e+00    
           9.57304612e-04     4.81493509e-04     0.00000000e+00    
           9.38873447e-04     4.98533365e-04     0.00000000e+00    
           9.17122990e-04     5.10142010e-04     0.00000000e+00    
           8.93299002e-04     5.15881053e-04     0.00000000e+00    
           8.43593618e-04     5.11782069e-04     0.00000000e+00    
           8.20556947e-04     5.00904920e-04     0.00000000e+00    
           8.01116694e-04     4.84985940e-04     0.00000000e+00    
           7.86697026e-04     4.64888319e-04     0.00000000e+00    
           7.78197718e-04     4.42104560e-04     0.00000000e+00    
           7.76072382e-04     4.18338721e-04     0.00000000e+00    
           7.80316885e-04     3.95218463e-04     0.00000000e+00    
           7.91917264e-04     3.74070194e-04     0.00000000e+00    
           8.10246042e-04     3.56996577e-04     0.00000000e+00    