<?xml version="1.0"?>
<VTKFile type="UnstructuredGrid" version="0.1">
  <UnstructuredGrid>
    <Piece NumberOfPoints="1034" NumberOfCells="1614">
      <Points>
        <DataArray type="Float32" NumberOfComponents="3">
           5.21582007e-01     5.11657000e-01     0.00000000e+00    
           5.07319987e-01     5.11657000e-01     0.00000000e+00    
           4.65243995e-01     5.17907977e-01     0.00000000e+00    
           4.65243995e-01     5.04921973e-01     0.00000000e+00    
           4.75246996e-01     5.11415005e-01     0.00000000e+00    
           5.33852994e-01     5.04921973e-01     0.00000000e+00    
           5.33852994e-01     5.17907977e-01     0.00000000e+00    
           4.83779997e-01     5.34618974e-01     0.00000000e+00    
           4.68984991e-01     5.34618974e-01     0.00000000e+00    
           4.76381987e-01     5.23841977e-01     0.00000000e+00    
           4.68984991e-01     4.66010004e-01     0.00000000e+00    
           4.83779997e-01     4.66010004e-01     0.00000000e+00    
           4.99920011e-01     5.34618974e-01     0.00000000e+00    
           4.89203990e-01     5.34618974e-01     0.00000000e+00    
           4.94562000e-01     5.22280991e-01     0.00000000e+00    
           4.89203990e-01     4.66010004e-01     0.00000000e+00    
           4.99920011e-01     4.66010004e-01     0.00000000e+00    
           5.32517016e-01     4.74112004e-01     0.00000000e+00    
           5.17961025e-01     4.74112004e-01     0.00000000e+00    
           5.33852994e-01     5.19801974e-01     0.00000000e+00    
           5.33852994e-01     5.29603004e-01     0.00000000e+00    
           5.19536972e-01     5.24702013e-01     0.00000000e+00    
           4.65243995e-01     5.29603004e-01     0.00000000e+00    
           4.65243995e-01     5.19801974e-01     0.00000000e+00    
           4.92487997e-01     5.17117977e-01     0.00000000e+00    
           4.76904988e-01     5.17117977e-01     0.00000000e+00    
           5.17996013e-01     5.27033985e-01     0.00000000e+00    
           5.04473984e-01     5.27033985e-01     0.00000000e+00    
           5.08446991e-01     4.83435005e-01     0.00000000e+00    
           4.94414002e-01     4.83435005e-01     0.00000000e+00    
           4.65243995e-01     4.83101994e-01     0.00000000e+00    
           4.65243995e-01     4.74415004e-01     0.00000000e+00    
           4.78336990e-01     4.78758007e-01     0.00000000e+00    
           5.33852994e-01     4.74415004e-01     0.00000000e+00    
           5.33852994e-01     4.83101994e-01     0.00000000e+00    
           4.80668008e-01     4.95810986e-01     0.00000000e+00    
           4.66084987e-01     4.95810986e-01     0.00000000e+00    
           4.93930012e-01     4.79214013e-01     0.00000000e+00    
           4.78967011e-01     4.79214013e-01     0.00000000e+00    
           5.09284973e-01     4.97658014e-01     0.00000000e+00    
           4.95503992e-01     4.97658014e-01     0.00000000e+00    
           5.33011973e-01     5.01751006e-01     0.00000000e+00    
           5.17829001e-01     5.01751006e-01     0.00000000e+00    
           4.95451003e-01     5.00564992e-01     0.00000000e+00    
           4.80922014e-01     5.00564992e-01     0.00000000e+00    
           5.25367022e-01     4.88312006e-01     0.00000000e+00    
           5.09521008e-01     4.88312006e-01     0.00000000e+00    
           4.65243995e-01     5.34618974e-01     0.00000000e+00    
           4.65243995e-01     4.66010004e-01     0.00000000e+00    
           5.33852994e-01     4.66010004e-01     0.00000000e+00    
           5.33852994e-01     5.34618974e-01     0.00000000e+00    
           5.21338999e-01     5.13502657e-01     0.00000000e+00    
           5.20626605e-01     5.15222490e-01     0.00000000e+00    
           5.19493401e-01     5.16699374e-01     0.00000000e+00    
           5.18016517e-01     5.17832637e-01     0.00000000e+00    
           5.16296625e-01     5.18545032e-01     0.00000000e+00    
           5.14451027e-01     5.18787980e-01     0.00000000e+00    
           5.12605369e-01     5.18545032e-01     0.00000000e+00    
           5.10885477e-01     5.17832637e-01     0.00000000e+00    
           5.09408593e-01     5.16699374e-01     0.00000000e+00    
           5.08275390e-01     5.15222490e-01     0.00000000e+00    
           5.07562995e-01     5.13502657e-01     0.00000000e+00    
           5.07562995e-01     5.09811342e-01     0.00000000e+00    
           5.08275390e-01     5.08091509e-01     0.00000000e+00    
           5.09408593e-01     5.06614625e-01     0.00000000e+00    
           5.10885477e-01     5.05481362e-01     0.00000000e+00    
           5.12605369e-01     5.04768968e-01     0.00000000e+00    
           5.14451027e-01     5.04526019e-01     0.00000000e+00    
           5.16296625e-01     5.04768968e-01     0.00000000e+00    
           5.18016517e-01     5.05481362e-01     0.00000000e+00    
           5.19493401e-01     5.06614625e-01     0.00000000e+00    
           5.20626605e-01     5.08091509e-01     0.00000000e+00    
           5.21338999e-01     5.09811342e-01     0.00000000e+00    
           4.66931671e-01     5.04409373e-01     0.00000000e+00    
           4.68693614e-01     5.04328012e-01     0.00000000e+00    
           4.70421344e-01     5.04682958e-01     0.00000000e+00    
           4.72008497e-01     5.05452335e-01     0.00000000e+00    
           4.73357379e-01     5.06588817e-01     0.00000000e+00    
           4.74384934e-01     5.08022368e-01     0.00000000e+00    
           4.75027919e-01     5.09664834e-01     0.00000000e+00    
           4.75028187e-01     5.13165236e-01     0.00000000e+00    
           4.74385172e-01     5.14807761e-01     0.00000000e+00    
           4.73357558e-01     5.16241372e-01     0.00000000e+00    
           4.72008646e-01     5.17377913e-01     0.00000000e+00    
           4.70421433e-01     5.18147290e-01     0.00000000e+00    
           4.68693614e-01     5.18502235e-01     0.00000000e+00    
           4.66931641e-01     5.18420875e-01     0.00000000e+00    
           5.32303810e-01     5.16964078e-01     0.00000000e+00    
           5.31043947e-01     5.15658796e-01     0.00000000e+00    
           5.30155540e-01     5.14077127e-01     0.00000000e+00    
           5.29696345e-01     5.12322068e-01     0.00000000e+00    
           5.29696345e-01     5.10507941e-01     0.00000000e+00    
           5.30155540e-01     5.08752882e-01     0.00000000e+00    
           5.31043947e-01     5.07171214e-01     0.00000000e+00    
           5.32303810e-01     5.05865932e-01     0.00000000e+00    
           4.68517244e-01     5.32760799e-01     0.00000000e+00    
           4.68509018e-01     5.30844629e-01     0.00000000e+00    
           4.68960851e-01     5.28982460e-01     0.00000000e+00    
           4.69846308e-01     5.27283132e-01     0.00000000e+00    
           4.71113682e-01     5.25845945e-01     0.00000000e+00    
           4.72688884e-01     5.24754822e-01     0.00000000e+00    
           4.74479854e-01     5.24073541e-01     0.00000000e+00    
           4.78284091e-01     5.24073601e-01     0.00000000e+00    
           4.80075032e-01     5.24754822e-01     0.00000000e+00    
           4.81650203e-01     5.25845885e-01     0.00000000e+00    
           4.82917547e-01     5.27283013e-01     0.00000000e+00    
           4.83803004e-01     5.28982282e-01     0.00000000e+00    
           4.84254897e-01     5.30844331e-01     0.00000000e+00    
           4.84246761e-01     5.32760441e-01     0.00000000e+00    
           4.82887864e-01     4.67691004e-01     0.00000000e+00    
           4.81620818e-01     4.69110936e-01     0.00000000e+00    
           4.80051905e-01     4.70188022e-01     0.00000000e+00    
           4.78271484e-01     4.70860153e-01     0.00000000e+00    
           4.76382166e-01     4.71088618e-01     0.00000000e+00    
           4.74492878e-01     4.70860243e-01     0.00000000e+00    
           4.72712427e-01     4.70188200e-01     0.00000000e+00    
           4.71143454e-01     4.69111174e-01     0.00000000e+00    
           4.69876349e-01     4.67691302e-01     0.00000000e+00    
           4.88103986e-01     5.33086061e-01     0.00000000e+00    
           4.87431526e-01     5.31323195e-01     0.00000000e+00    
           4.87231195e-01     5.29447019e-01     0.00000000e+00    
           4.87516224e-01     5.27581930e-01     0.00000000e+00    
           4.88267750e-01     5.25851250e-01     0.00000000e+00    
           4.89436030e-01     5.24369657e-01     0.00000000e+00    
           4.90943670e-01     5.23235261e-01     0.00000000e+00    
           4.92690891e-01     5.22523046e-01     0.00000000e+00    
           4.96432930e-01     5.22523701e-01     0.00000000e+00    
           4.98180002e-01     5.23235798e-01     0.00000000e+00    
           4.99687493e-01     5.24370134e-01     0.00000000e+00    
           5.00855684e-01     5.25851607e-01     0.00000000e+00    
           5.01607120e-01     5.27582109e-01     0.00000000e+00    
           5.01892149e-01     5.29447079e-01     0.00000000e+00    
           5.01691818e-01     5.31323016e-01     0.00000000e+00    
           5.01019418e-01     5.33085763e-01     0.00000000e+00    
           4.98371124e-01     4.67269689e-01     0.00000000e+00    
           4.96539861e-01     4.68064904e-01     0.00000000e+00    
           4.94562000e-01     4.68336672e-01     0.00000000e+00    
           4.92584139e-01     4.68064904e-01     0.00000000e+00    
           4.90752876e-01     4.67269689e-01     0.00000000e+00    
           5.32269001e-01     4.75995690e-01     0.00000000e+00    
           5.31541944e-01     4.77750987e-01     0.00000000e+00    
           5.30385315e-01     4.79258329e-01     0.00000000e+00    
           5.28877974e-01     4.80414927e-01     0.00000000e+00    
[...]
      <PointData>
        <DataArray type="Float32" Name="Displacement" NumberOfComponents="3">
           8.64126720e-04     6.21040908e-06     0.00000000e+00    
           8.43689952e-04    -9.08786660e-06     0.00000000e+00    
          -4.62075986e-05     5.74547403e-06     0.00000000e+00    
          -2.31344075e-05    -1.14787269e-09     0.00000000e+00    
          -1.71017564e-05     2.33518967e-05     0.00000000e+00    
           1.12686562e-03    -1.14787269e-09     0.00000000e+00    
           1.10379246e-03     5.74547403e-06     0.00000000e+00    
           1.45812912e-04     4.86164572e-06     0.00000000e+00    
           1.24038794e-04    -1.87528312e-05     0.00000000e+00    
           1.53969522e-04    -1.07563228e-05     0.00000000e+00    
           1.24038794e-04    -1.87528312e-05     0.00000000e+00    
           1.45812912e-04     4.86164572e-06     0.00000000e+00    
           3.98718606e-04    -2.76018473e-05     0.00000000e+00    
           3.80835554e-04    -4.45104433e-06     0.00000000e+00    
           3.61323735e-04    -1.96049114e-05     0.00000000e+00    
           3.80835554e-04    -4.45104433e-06     0.00000000e+00    
           3.98718606e-04    -2.76018473e-05     0.00000000e+00    
           1.01555337e-03     4.95929999e-05     0.00000000e+00    
           9.93270427e-04     1.15798885e-05     0.00000000e+00    
           1.03892072e-03     8.00959060e-06     0.00000000e+00    
           1.04061107e-03     1.04064429e-05     0.00000000e+00    
           1.01653871e-03     1.04357950e-05     0.00000000e+00    
          -1.09388951e-04     1.04064429e-05     0.00000000e+00    
          -1.11079280e-04     8.00959060e-06     0.00000000e+00    
           2.54173938e-04     1.09342309e-05     0.00000000e+00    
           2.31541009e-04    -5.28589908e-06     0.00000000e+00    
           7.98285415e-04     2.08542351e-05     0.00000000e+00    
           7.75886700e-04    -5.30488023e-06     0.00000000e+00    
           5.76932856e-04    -7.23771279e-07     0.00000000e+00    
           5.54134080e-04     1.33392350e-05     0.00000000e+00    
           5.98962251e-05    -2.41825501e-06     0.00000000e+00    
           6.48576679e-05    -5.58481543e-06     0.00000000e+00    
           8.41647561e-05     4.80343078e-06     0.00000000e+00    
           1.21485768e-03    -5.58481543e-06     0.00000000e+00    
           1.20989617e-03    -2.41825501e-06     0.00000000e+00    
           9.18436417e-05     3.54609037e-05     0.00000000e+00    
           6.82126629e-05     1.52966222e-05     0.00000000e+00    
           2.83384317e-04     2.44345188e-06     0.00000000e+00    
           2.58726301e-04     1.38581872e-05     0.00000000e+00    
           6.09326584e-04    -1.37626614e-06     0.00000000e+00    
           5.86960232e-04     3.39548897e-05     0.00000000e+00    
           9.85599705e-04     5.77086929e-08     0.00000000e+00    
           9.62095801e-04     2.60121778e-05     0.00000000e+00    
           3.31379735e-04     9.65903473e-06     0.00000000e+00    
           3.06521280e-04    -1.81900759e-05     0.00000000e+00    
           8.78773921e-04     2.60307825e-05     0.00000000e+00    
           8.54881539e-04     1.04957235e-05     0.00000000e+00    
           0.00000000e+00     0.00000000e+00     0.00000000e+00    
           0.00000000e+00     0.00000000e+00     0.00000000e+00    
           1.15000003e-03     0.00000000e+00     0.00000000e+00    
           1.15000003e-03     0.00000000e+00     0.00000000e+00    
           8.61507142e-04     6.99226166e-06     0.00000000e+00    
           8.58964282e-04     7.19818354e-06     0.00000000e+00    
           8.56158091e-04     6.88265709e-06     0.00000000e+00    
           8.52887926e-04     5.87987779e-06     0.00000000e+00    
           8.49369215e-04     3.78546474e-06     0.00000000e+00    
           8.45645322e-04     7.76685681e-07     0.00000000e+00    
           8.43425456e-04    -2.31336298e-06     0.00000000e+00    
           8.42227717e-04    -4.75431943e-06     0.00000000e+00    
           8.41324043e-04    -6.45331102e-06     0.00000000e+00    
           8.41411354e-04    -7.50631307e-06     0.00000000e+00    
           8.42232781e-04    -8.43083581e-06     0.00000000e+00    
           8.45637696e-04    -9.42805673e-06     0.00000000e+00    
           8.47969437e-04    -9.62401100e-06     0.00000000e+00    
           8.50616314e-04    -9.37509685e-06     0.00000000e+00    
           8.53652775e-04    -8.67040490e-06     0.00000000e+00    
           8.57323990e-04    -7.43338978e-06     0.00000000e+00    
           8.61789798e-04    -5.57046906e-06     0.00000000e+00    
           8.65692215e-04    -2.84109592e-06     0.00000000e+00    
           8.68014118e-04    -2.60564548e-07     0.00000000e+00    
           8.68519593e-04     1.32410969e-06     0.00000000e+00    
           8.68146017e-04     3.23051540e-06     0.00000000e+00    
           8.66543676e-04     4.86319641e-06     0.00000000e+00    
          -1.85044519e-05     2.57190186e-06     0.00000000e+00    
          -1.41326191e-05     7.40836504e-06     0.00000000e+00    
          -1.18494299e-05     1.22888714e-05     0.00000000e+00    
          -1.10279025e-05     1.63362492e-05     0.00000000e+00    
          -1.13543456e-05     1.91861491e-05     0.00000000e+00    
          -1.24025364e-05     2.12455270e-05     0.00000000e+00    
          -1.43553780e-05     2.25525982e-05     0.00000000e+00    
          -2.05287779e-05     2.31855392e-05     0.00000000e+00    
          -2.43538252e-05     2.19679278e-05     0.00000000e+00    
          -2.83977752e-05     1.99493898e-05     0.00000000e+00    
          -3.22446867e-05     1.76142730e-05     0.00000000e+00    
          -3.60875856e-05     1.54861991e-05     0.00000000e+00    
          -4.02511396e-05     1.32788336e-05     0.00000000e+00    
          -4.39581963e-05     9.58508917e-06     0.00000000e+00    
           1.10397674e-03     2.56201747e-06     0.00000000e+00    
           1.10582565e-03    -4.52247832e-07     0.00000000e+00    
           1.10824197e-03    -2.85024930e-06     0.00000000e+00    
           1.11063698e-03    -4.44558418e-06     0.00000000e+00    
           1.11301779e-03    -5.24652205e-06     0.00000000e+00    
           1.11593993e-03    -5.46629872e-06     0.00000000e+00    
           1.11957814e-03    -4.78354332e-06     0.00000000e+00    
           1.12337247e-03    -2.88320621e-06     0.00000000e+00    
           1.25893115e-04    -2.03591044e-05     0.00000000e+00    
           1.28765372e-04    -2.13071526e-05     0.00000000e+00    
           1.32344532e-04    -2.10158087e-05     0.00000000e+00    
           1.36382383e-04    -1.97269765e-05     0.00000000e+00    
           1.40530130e-04    -1.79165327e-05     0.00000000e+00    
           1.45073587e-04    -1.60789223e-05     0.00000000e+00    
           1.49904357e-04    -1.40150487e-05     0.00000000e+00    
           1.57489063e-04    -6.89146691e-06     0.00000000e+00    
           1.58840718e-04    -3.25450605e-06     0.00000000e+00    
           1.58779789e-04    -6.31819717e-08     0.00000000e+00    
           1.57586663e-04     2.84646194e-06     0.00000000e+00    
           1.55922680e-04     4.56289627e-06     0.00000000e+00    
           1.53114524e-04     5.13961277e-06     0.00000000e+00    
           1.49770480e-04     5.19343075e-06     0.00000000e+00    
           1.41619457e-04     4.17299316e-06     0.00000000e+00    
           1.37637981e-04     3.27723137e-06     0.00000000e+00    
           1.33722366e-04     1.64502080e-06     0.00000000e+00    
           1.29559819e-04    -4.03387133e-07     0.00000000e+00    
           1.25839593e-04    -4.08312462e-06     0.00000000e+00    
           1.23056525e-04    -8.26495852e-06     0.00000000e+00    
           1.22245852e-04    -1.16787560e-05     0.00000000e+00    
           1.22440164e-04    -1.47396768e-05     0.00000000e+00    
           1.22818601e-04    -1.69685136e-05     0.00000000e+00    
           3.75984586e-04    -2.26854104e-06     0.00000000e+00    
           3.71139933e-04    -6.91641731e-07     0.00000000e+00    
           3.66395136e-04    -3.25172806e-07     0.00000000e+00    
           3.62369232e-04    -1.26054147e-06     0.00000000e+00    
           3.59099125e-04    -4.09390077e-06     0.00000000e+00    
           3.57295852e-04    -7.17789180e-06     0.00000000e+00    
           3.56778706e-04    -1.05220533e-05     0.00000000e+00    
           3.57811252e-04    -1.48698291e-05     0.00000000e+00    
           3.66132241e-04    -2.36033466e-05     0.00000000e+00    
           3.71115573e-04    -2.65799899e-05     0.00000000e+00    
           3.76076612e-04    -2.91760352e-05     0.00000000e+00    
           3.80806829e-04    -3.14583922e-05     0.00000000e+00    
           3.85549793e-04    -3.32849741e-05     0.00000000e+00    
           3.90117988e-04    -3.37310157e-05     0.00000000e+00    
           3.93985712e-04    -3.30275943e-05     0.00000000e+00    
           3.96988267e-04    -3.08839371e-05     0.00000000e+00    
           3.98959935e-04    -2.32784078e-05     0.00000000e+00    
           3.97385098e-04    -1.84821438e-05     0.00000000e+00    
           3.94494622e-04    -1.38381693e-05     0.00000000e+00    
           3.90519068e-04    -1.00986927e-05     0.00000000e+00    
           3.85986234e-04    -7.07924437e-06     0.00000000e+00    
           1.01017172e-03     4.98695263e-05     0.00000000e+00    
           1.00430474e-03     4.84961347e-05     0.00000000e+00    
           9.98623436e-04     4.52044769e-05     0.00000000e+00    
           9.92682762e-04     4.21347904e-05     0.00000000e+00    
           9.86631378e-04     3.83590086e-05     0.00000000e+00    
           9.81876859e-04     3.37487800e-05     0.00000000e+00    
           9.78335040e-04     2.75863440e-05     0.00000000e+00    
           9.78234806e-04     2.29233810e-05     0.00000000e+00    
           9.80396871e-04     1.83813645e-05     0.00000000e+00    
           9.84022743e-04     1.45991662e-05     0.00000000e+00    
           9.88426851e-04     1.23762047e-05     0.00000000e+00    
           9.98653006e-04     1.17949039e-05     0.00000000e+00    
           1.00411184e-03     1.31006946e-05     0.00000000e+00    
           1.00936054e-03     1.54934096e-05     0.00000000e+00    
           1.01419224e-03     1.90520914e-05     0.00000000e+00    
           1.01850741e-03     2.37634777e-05     0.00000000e+00    
           1.02170394e-03     2.89143136e-05     0.00000000e+00    
           1.02367054e-03     3.37339916e-05     0.00000000e+00    
           1.02475146e-03     3.79090634e-05     0.00000000e+00    
           1.02444529e-03     4.16150797e-05     0.00000000e+00    
           1.02284155e-03     4.49312902e-05     0.00000000e+00    
           1.01989938e-03     4.77712128e-05     0.00000000e+00    
           1.03890128e-03     1.07073138e-05     0.00000000e+00    
           1.03644293e-03     1.09971943e-05     0.00000000e+00    
           1.03345048e-03     1.10918072e-05     0.00000000e+00    
           1.03028922e-03     1.07018532e-05     0.00000000e+00    
           1.02702435e-03     1.05723402e-05     0.00000000e+00    
           1.02385506e-03     1.04461069e-05     0.00000000e+00    
           1.02107576e-03     1.04043183e-05     0.00000000e+00    
           1.01887074e-03     1.05093750e-05     0.00000000e+00    
           1.01729482e-03     1.06952311e-05     0.00000000e+00    
           1.01652183e-03     9.75804323e-06     0.00000000e+00    
           1.01720309e-03     8.52589437e-06     0.00000000e+00    
           1.01872173e-03     7.34152991e-06     0.00000000e+00    
           1.02108170e-03     6.66760843e-06     0.00000000e+00    
           1.02399662e-03     6.18389004e-06     0.00000000e+00    
           1.02833239e-03     5.63923777e-06     0.00000000e+00    
           1.03234162e-03     5.59796899e-06     0.00000000e+00    
           1.03593885e-03     6.12191616e-06     0.00000000e+00    
           1.03796076e-03     6.77818070e-06     0.00000000e+00    
          -1.10222783e-04     8.92432035e-06     0.00000000e+00    
          -1.09215653e-04     9.47136050e-06     0.00000000e+00    
          -1.08436820e-04     9.85409315e-06     0.00000000e+00    
          -1.08209962e-04     1.01870410e-05     0.00000000e+00    
          -1.08504391e-04     1.03290058e-05     0.00000000e+00    
           2.52360274e-04     1.11095414e-05     0.00000000e+00    
           2.50680285e-04     1.14341874e-05     0.00000000e+00    
           2.48383614e-04     1.16918227e-05     0.00000000e+00    
           2.45781994e-04     1.14135673e-05     0.00000000e+00    
           2.42638038e-04     1.07252363e-05     0.00000000e+00    
           2.38303503e-04     1.00043499e-05     0.00000000e+00    
           2.33754894e-04     7.38875906e-06     0.00000000e+00    
           2.30762336e-04     4.32952038e-06     0.00000000e+00    
           2.29382946e-04     1.55638816e-06     0.00000000e+00    
           2.29361453e-04    -9.96378503e-07     0.00000000e+00    
           2.29669415e-04    -3.25906421e-06     0.00000000e+00    
           2.30247431e-04    -4.53153825e-06     0.00000000e+00    
           2.33540195e-04    -5.41737518e-06     0.00000000e+00    
           2.36061416e-04    -4.85728879e-06     0.00000000e+00    
           2.39066736e-04    -3.70420867e-06     0.00000000e+00    
           2.42495007e-04    -2.81070129e-06     0.00000000e+00    
           2.46437878e-04    -1.46902607e-06     0.00000000e+00    
           2.50640558e-04     6.93049287e-07     0.00000000e+00    
           2.53403006e-04     3.35918162e-06     0.00000000e+00    
           2.54997023e-04     5.91862090e-06     0.00000000e+00    
           2.56034982e-04     7.84909662e-06     0.00000000e+00    
           2.56424712e-04     9.02863758e-06     0.00000000e+00    
           2.56335479e-04     9.94087623e-06     0.00000000e+00    
           2.55561317e-04     1.05532836e-05     0.00000000e+00    
           7.93989457e-04     2.05620672e-05     0.00000000e+00    
           7.89184414e-04     1.98232410e-05     0.00000000e+00    
           7.84112781e-04     1.81745509e-05     0.00000000e+00    
           7.79393245e-04     1.57855284e-05     0.00000000e+00    
           7.74819579e-04     1.24470553e-05     0.00000000e+00    
           7.71034218e-04     8.37222979e-06     0.00000000e+00    
           7.68679776e-04     3.87396040e-06     0.00000000e+00    
           7.68396771e-04    -1.60120237e-07     0.00000000e+00    
           7.69581413e-04    -3.16561864e-06     0.00000000e+00    
           7.72228232e-04    -4.60288311e-06     0.00000000e+00    
           7.80272123e-04    -4.86776207e-06     0.00000000e+00    
           7.84982054e-04    -3.80737220e-06     0.00000000e+00    
           7.90074933e-04    -1.92288621e-06     0.00000000e+00    
           7.95385335e-04     6.19390903e-07     0.00000000e+00    
           8.00411799e-04     4.73734690e-06     0.00000000e+00    
           8.03450646e-04     8.98020062e-06     0.00000000e+00    
           8.04874813e-04     1.28479696e-05     0.00000000e+00    
           8.05531919e-04     1.62515953e-05     0.00000000e+00    
           8.04387848e-04     1.87575861e-05     0.00000000e+00    
           8.01907794e-04     2.02222309e-05     0.00000000e+00    
           5.78850391e-04     1.30846615e-07     0.00000000e+00    
           5.79997664e-04     1.02809656e-06     0.00000000e+00    
           5.80219901e-04     2.28919635e-06     0.00000000e+00    
           5.78695443e-04     3.92493394e-06     0.00000000e+00    
           5.76918887e-04     5.96044902e-06     0.00000000e+00    
           5.75277954e-04     8.57098439e-06     0.00000000e+00    
           5.72471006e-04     1.04760156e-05     0.00000000e+00    
           5.68485761e-04     1.25072402e-05     0.00000000e+00    
           5.64184447e-04     1.35633636e-05     0.00000000e+00    
           5.60430053e-04     1.36314848e-05     0.00000000e+00    
           5.56978805e-04     1.36482986e-05     0.00000000e+00    
           5.51817531e-04     1.27023714e-05     0.00000000e+00    
           5.50403784e-04     1.16843576e-05     0.00000000e+00    
           5.49890217e-04     1.05672498e-05     0.00000000e+00    
           5.50259952e-04     8.62475099e-06     0.00000000e+00    
           5.52263402e-04     5.79179687e-06     0.00000000e+00    
           5.55732986e-04     2.98225609e-06     0.00000000e+00    
           5.59500302e-04     1.18187882e-06     0.00000000e+00    
           5.63536072e-04     8.39701908e-09     0.00000000e+00    
           5.67564333e-04    -4.34670824e-07     0.00000000e+00    
           5.70994394e-04    -7.91163984e-07     0.00000000e+00    
           5.74123929e-04    -8.85397299e-07     0.00000000e+00    
           6.78973665e-05    -4.91303535e-06     0.00000000e+00    
           7.13790578e-05    -4.65078210e-06     0.00000000e+00    
           7.51891785e-05    -3.75695117e-06     0.00000000e+00    
           7.88270918e-05    -2.19018466e-06     0.00000000e+00    
           8.13520674e-05    -3.51144820e-07     0.00000000e+00    
           8.27189724e-05     1.48961510e-06     0.00000000e+00    
           8.39422064e-05     3.18536195e-06     0.00000000e+00    
           8.48222771e-05     3.99591863e-06     0.00000000e+00    
           8.48865529e-05     4.37915060e-06     0.00000000e+00    
           8.26462492e-05     4.96321081e-06     0.00000000e+00    
           8.03514558e-05     4.55162854e-06     0.00000000e+00    
           7.74583532e-05     3.99200735e-06     0.00000000e+00    
           7.43407072e-05     3.28021133e-06     0.00000000e+00    
           7.10664608e-05     2.25754025e-06     0.00000000e+00    
           6.84532279e-05     1.31531453e-06     0.00000000e+00    
           6.58541248e-05     4.52164983e-07     0.00000000e+00    
           6.34917960e-05    -2.93965087e-07     0.00000000e+00    
           6.13912780e-05    -1.27257624e-06     0.00000000e+00    
           1.20919419e-03    -3.71458646e-06     0.00000000e+00    
           1.20945391e-03    -4.99534872e-06     0.00000000e+00    
           1.21051655e-03    -5.66736253e-06     0.00000000e+00    
           1.21243903e-03    -6.07245647e-06     0.00000000e+00    
           8.90291412e-05     3.56396777e-05     0.00000000e+00    
           8.54669343e-05     3.49112706e-05     0.00000000e+00    
           8.15379826e-05     3.33316420e-05     0.00000000e+00    
           7.71530758e-05     3.17664562e-05     0.00000000e+00    
           7.22676923e-05     2.96988510e-05     0.00000000e+00    
           6.81386446e-05     2.64666814e-05     0.00000000e+00    
           6.51448427e-05     2.27116780e-05     0.00000000e+00    
           6.37709381e-05     1.96813726e-05     0.00000000e+00    
           6.32417141e-05     1.77561051e-05     0.00000000e+00    
           6.38798447e-05     1.64617286e-05     0.00000000e+00    
           6.56629418e-05     1.58779822e-05     0.00000000e+00    
           7.15323185e-05     1.51692557e-05     0.00000000e+00    
           7.53793138e-05     1.56823826e-05     0.00000000e+00    
           7.95537271e-05     1.68184379e-05     0.00000000e+00    
           8.35080209e-05     1.87009209e-05     0.00000000e+00    
           8.69387441e-05     2.08861038e-05     0.00000000e+00    
           8.98356666e-05     2.31174490e-05     0.00000000e+00    
           9.23207044e-05     2.50388530e-05     0.00000000e+00    
           9.38811791e-05     2.72510642e-05     0.00000000e+00    
           9.46909786e-05     2.97774022e-05     0.00000000e+00    