<?xml version="1.0"?>
<VTKFile type="UnstructuredGrid" version="0.1">
  <UnstructuredGrid>
    <Piece NumberOfPoints="1034" NumberOfCells="1614">
      <Points>
        <DataArray type="Float32" NumberOfComponents="3">
           5.21582007e-01     5.11657000e-01     0.00000000e+00    
           5.07319987e-01     5.11657000e-01     0.00000000e+00    
           4.65243995e-01     5.17907977e-01     0.00000000e+00    
           4.65243995e-01     5.04921973e-01     0.00000000e+00    
           4.75246996e-01     5.11415005e-01     0.00000000e+00    
           5.33852994e-01     5.04921973e-01     0.00000000e+00    
           5.33852994e-01     5.17907977e-01     0.00000000e+00    
           4.83779997e-01     5.34618974e-01     0.00000000e+00    
           4.68984991e-01     5.34618974e-01     0.00000000e+00    
           4.76381987e-01     5.23841977e-01     0.00000000e+00    
           4.68984991e-01     4.66010004e-01     0.00000000e+00    
           4.83779997e-01     4.66010004e-01     0.00000000e+00    
           4.99920011e-01     5.34618974e-01     0.00000000e+00    
           4.89203990e-01     5.34618974e-01     0.00000000e+00    
           4.94562000e-01     5.22280991e-01     0.00000000e+00    
           4.89203990e-01     4.66010004e-01     0.00000000e+00    
           4.99920011e-01     4.66010004e-01     0.00000000e+00    
           5.32517016e-01     4.74112004e-01     0.00000000e+00    
           5.17961025e-01     4.74112004e-01     0.00000000e+00    
           5.33852994e-01     5.19801974e-01     0.00000000e+00    
           5.33852994e-01     5.29603004e-01     0.00000000e+00    
           5.19536972e-01     5.24702013e-01     0.00000000e+00    
           4.65243995e-01     5.29603004e-01     0.00000000e+00    
           4.65243995e-01     5.19801974e-01     0.00000000e+00    
           4.92487997e-01     5.17117977e-01     0.00000000e+00    
           4.76904988e-01     5.17117977e-01     0.00000000e+00    
           5.17996013e-01     5.27033985e-01     0.00000000e+00    
           5.04473984e-01     5.27033985e-01     0.00000000e+00    
           5.08446991e-01     4.83435005e-01     0.00000000e+00    
           4.94414002e-01     4.83435005e-01     0.00000000e+00    
           4.65243995e-01     4.83101994e-01     0.00000000e+00    
           4.65243995e-01     4.74415004e-01     0.00000000e+00    
           4.78336990e-01     4.78758007e-01     0.00000000e+00    
           5.33852994e-01     4.74415004e-01     0.00000000e+00    
           5.33852994e-01     4.83101994e-01     0.00000000e+00    
           4.80668008e-01     4.95810986e-01     0.00000000e+00    
           4.66084987e-01     4.95810986e-01     0.00000000e+00    
           4.93930012e-01     4.79214013e-01     0.00000000e+00    
           4.78967011e-01     4.79214013e-01     0.00000000e+00    
           5.09284973e-01     4.97658014e-01     0.00000000e+00    
           4.95503992e-01     4.97658014e-01     0.00000000e+00    
           5.33011973e-01     5.01751006e-01     0.00000000e+00    
           5.17829001e-01     5.01751006e-01     0.00000000e+00    
           4.95451003e-01     5.00564992e-01     0.00000000e+00    
           4.80922014e-01     5.00564992e-01     0.00000000e+00    
           5.25367022e-01     4.88312006e-01     0.00000000e+00    
           5.09521008e-01     4.88312006e-01     0.00000000e+00    
           4.65243995e-01     5.34618974e-01     0.00000000e+00    
           4.65243995e-01     4.66010004e-01     0.00000000e+00    
           5.33852994e-01     4.66010004e-01     0.00000000e+00    
           5.33852994e-01     5.34618974e-01     0.00000000e+00    
           5.21338999e-01     5.13502657e-01     0.00000000e+00    
           5.20626605e-01     5.15222490e-01     0.00000000e+00    
           5.19493401e-01     5.16699374e-01     0.00000000e+00    
           5.18016517e-01     5.17832637e-01     0.00000000e+00    
           5.16296625e-01     5.18545032e-01     0.00000000e+00    
           5.14451027e-01     5.18787980e-01     0.00000000e+00    
           5.12605369e-01     5.18545032e-01     0.00000000e+00    
           5.10885477e-01     5.17832637e-01     0.00000000e+00    
           5.09408593e-01     5.16699374e-01     0.00000000e+00    
           5.08275390e-01     5.15222490e-01     0.00000000e+00    
           5.07562995e-01     5.13502657e-01     0.00000000e+00    
           5.07562995e-01     5.09811342e-01     0.00000000e+00    
           5.08275390e-01     5.08091509e-01     0.00000000e+00    
           5.09408593e-01     5.06614625e-01     0.00000000e+00    
           5.10885477e-01     5.05481362e-01     0.00000000e+00    
           5.12605369e-01     5.04768968e-01     0.00000000e+00    
           5.14451027e-01     5.04526019e-01     0.00000000e+00    
           5.16296625e-01     5.04768968e-01     0.00000000e+00    
           5.18016517e-01     5.05481362e-01     0.00000000e+00    
           5.19493401e-01     5.06614625e-01     0.00000000e+00    
           5.20626605e-01     5.08091509e-01     0.00000000e+00    
           5.21338999e-01     5.09811342e-01     0.00000000e+00    
           4.66931671e-01     5.04409373e-01     0.00000000e+00    
           4.68693614e-01     5.04328012e-01     0.00000000e+00    
           4.70421344e-01     5.04682958e-01     0.00000000e+00    
           4.72008497e-01     5.05452335e-01     0.00000000e+00    
           4.73357379e-01     5.06588817e-01     0.00000000e+00    
           4.74384934e-01     5.08022368e-01     0.00000000e+00    
           4.75027919e-01     5.09664834e-01     0.00000000e+00    
           4.75028187e-01     5.13165236e-01     0.00000000e+00    
           4.74385172e-01     5.14807761e-01     0.00000000e+00    
           4.73357558e-01     5.16241372e-01     0.00000000e+00    
           4.72008646e-01     5.17377913e-01     0.00000000e+00    
           4.70421433e-01     5.18147290e-01     0.00000000e+00    
           4.68693614e-01     5.18502235e-01     0.00000000e+00    
           4.66931641e-01     5.18420875e-01     0.00000000e+00    
           5.32303810e-01     5.16964078e-01     0.00000000e+00    
           5.31043947e-01     5.15658796e-01     0.00000000e+00    
           5.30155540e-01     5.14077127e-01     0.00000000e+00    
           5.29696345e-01     5.12322068e-01     0.00000000e+00    
           5.29696345e-01     5.10507941e-01     0.00000000e+00    
           5.30155540e-01     5.08752882e-01     0.00000000e+00    
           5.31043947e-01     5.07171214e-01     0.00000000e+00    
           5.32303810e-01     5.05865932e-01     0.00000000e+00    
           4.68517244e-01     5.32760799e-01     0.00000000e+00    
           4.68509018e-01     5.30844629e-01     0.00000000e+00    
           4.68960851e-01     5.28982460e-01     0.00000000e+00    
           4.69846308e-01     5.27283132e-01     0.00000000e+00    
           4.71113682e-01     5.25845945e-01     0.00000000e+00    
           4.72688884e-01     5.24754822e-01     0.00000000e+00    
           4.74479854e-01     5.24073541e-01     0.00000000e+00    
           4.78284091e-01     5.24073601e-01     0.00000000e+00    
           4.80075032e-01     5.24754822e-01     0.00000000e+00    
           4.81650203e-01     5.25845885e-01     0.00000000e+00    
           4.82917547e-01     5.27283013e-01     0.00000000e+00    
           4.83803004e-01     5.28982282e-01     0.00000000e+00    
           4.84254897e-01     5.30844331e-01     0.00000000e+00    
           4.84246761e-01     5.32760441e-01     0.00000000e+00    
           4.82887864e-01     4.67691004e-01     0.00000000e+00    
           4.81620818e-01     4.69110936e-01     0.00000000e+00    
           4.80051905e-01     4.70188022e-01     0.00000000e+00    
           4.78271484e-01     4.70860153e-01     0.00000000e+00    
           4.76382166e-01     4.71088618e-01     0.00000000e+00    
           4.74492878e-01     4.70860243e-01     0.00000000e+00    
           4.72712427e-01     4.70188200e-01     0.00000000e+00    
           4.71143454e-01     4.69111174e-01     0.00000000e+00    
           4.69876349e-01     4.67691302e-01     0.00000000e+00    
           4.88103986e-01     5.33086061e-01     0.00000000e+00    
           4.87431526e-01     5.31323195e-01     0.00000000e+00    
           4.87231195e-01     5.29447019e-01     0.00000000e+00    
           4.87516224e-01     5.27581930e-01     0.00000000e+00    
           4.88267750e-01     5.25851250e-01     0.00000000e+00    
           4.89436030e-01     5.24369657e-01     0.00000000e+00    
           4.90943670e-01     5.23235261e-01     0.00000000e+00    
           4.92690891e-01     5.22523046e-01     0.00000000e+00    
           4.96432930e-01     5.22523701e-01     0.00000000e+00    
           4.98180002e-01     5.23235798e-01     0.00000000e+00    
           4.99687493e-01     5.24370134e-01     0.00000000e+00    
           5.00855684e-01     5.25851607e-01     0.00000000e+00    
           5.01607120e-01     5.27582109e-01     0.00000000e+00    
           5.01892149e-01     5.29447079e-01     0.00000000e+00    
           5.01691818e-01     5.31323016e-01     0.00000000e+00    
           5.01019418e-01     5.33085763e-01     0.00000000e+00    
           4.98371124e-01     4.67269689e-01     0.00000000e+00    
           4.96539861e-01     4.68064904e-01     0.00000000e+00    
           4.94562000e-01     4.68336672e-01     0.00000000e+00    
           4.92584139e-01     4.68064904e-01     0.00000000e+00    
           4.90752876e-01     4.67269689e-01     0.00000000e+00    
           5.32269001e-01     4.75995690e-01     0.00000000e+00    
           5.31541944e-01     4.77750987e-01     0.00000000e+00    
           5.30385315e-01     4.79258329e-01     0.00000000e+00    
           5.28877974e-01     4.80414927e-01     0.00000000e+00    
[...]
      <PointData>
        <DataArray type="Float32" Name="Displacement" NumberOfComponents="3">
           1.90650699e-05     2.89178803e-04     0.00000000e+00    
           1.74648139e-05     3.02982575e-04     0.00000000e+00    
           2.97903966e-06     3.07285809e-04     0.00000000e+00    
           8.81025881e-06     2.91358563e-04     0.00000000e+00    
           6.83102780e-06     3.04556073e-04     0.00000000e+00    
           8.81025881e-06     2.91358563e-04     0.00000000e+00    
           2.97903966e-06     3.07285809e-04     0.00000000e+00    
           1.80437837e-05     4.42917604e-04     0.00000000e+00    
           1.62789875e-05     4.48748120e-04     0.00000000e+00    
           1.39698959e-05     4.34819085e-04     0.00000000e+00    
           1.62789875e-05    -1.25188433e-06     0.00000000e+00    
           1.80437837e-05    -7.08238440e-06     0.00000000e+00    
           1.43668467e-05     4.19609569e-04     0.00000000e+00    
           1.30691105e-05     4.24277649e-04     0.00000000e+00    
           7.95460073e-06     4.11726243e-04     0.00000000e+00    
           1.30691105e-05    -2.57223455e-05     0.00000000e+00    
           1.43668467e-05    -3.03904399e-05     0.00000000e+00    
           1.36204399e-05     6.27070622e-05     0.00000000e+00    
           1.21040557e-05     7.73142674e-05     0.00000000e+00    
           2.18930545e-05     3.73038871e-04     0.00000000e+00    
           1.91545732e-05     3.86270200e-04     0.00000000e+00    
           2.12790728e-05     3.78568890e-04     0.00000000e+00    
           1.91545732e-05     3.86270200e-04     0.00000000e+00    
           2.18930545e-05     3.73038871e-04     0.00000000e+00    
           1.10237233e-05     3.63010389e-04     0.00000000e+00    
           9.74242721e-06     3.58093734e-04     0.00000000e+00    
           2.11625756e-05     3.80532525e-04     0.00000000e+00    
           2.13139847e-05     3.87974927e-04     0.00000000e+00    
           1.94126187e-05     1.63136356e-04     0.00000000e+00    
           1.75348432e-05     1.40380100e-04     0.00000000e+00    
           2.04489006e-05     8.19463894e-05     0.00000000e+00    
           2.06893164e-05     7.44176432e-05     0.00000000e+00    
           2.00315444e-05     7.91122293e-05     0.00000000e+00    
           2.06893164e-05     7.44176432e-05     0.00000000e+00    
           2.04489006e-05     8.19463894e-05     0.00000000e+00    
           1.04781539e-05     2.18077999e-04     0.00000000e+00    
           1.09215543e-05     2.09603357e-04     0.00000000e+00    
           2.19825051e-05     1.10279165e-04     0.00000000e+00    
           2.11713923e-05     8.13706065e-05     0.00000000e+00    
           1.48443951e-05     1.94480454e-04     0.00000000e+00    
           1.16856145e-05     2.11457940e-04     0.00000000e+00    
           1.19902716e-05     2.58429529e-04     0.00000000e+00    
           9.19555259e-06     2.47661432e-04     0.00000000e+00    
           1.13915667e-05     2.32366743e-04     0.00000000e+00    
           9.38492940e-06     2.49201519e-04     0.00000000e+00    
           3.43065149e-05     1.70592713e-04     0.00000000e+00    
           3.22506676e-05     1.69445004e-04     0.00000000e+00    
           0.00000000e+00     4.49999992e-04     0.00000000e+00    
           0.00000000e+00     0.00000000e+00     0.00000000e+00    
           0.00000000e+00     0.00000000e+00     0.00000000e+00    
           0.00000000e+00     4.49999992e-04     0.00000000e+00    
           2.06699006e-05     2.92146084e-04     0.00000000e+00    
           2.23147690e-05     2.94772821e-04     0.00000000e+00    
           2.34956715e-05     2.97410414e-04     0.00000000e+00    
           2.41096695e-05     2.99797335e-04     0.00000000e+00    
           2.42267924e-05     3.02540517e-04     0.00000000e+00    
           2.39371493e-05     3.05303867e-04     0.00000000e+00    
           2.35637854e-05     3.07061593e-04     0.00000000e+00    
           2.29976577e-05     3.07384122e-04     0.00000000e+00    
           2.20630664e-05     3.06844362e-04     0.00000000e+00    
           2.06485165e-05     3.05799418e-04     0.00000000e+00    
           1.91208728e-05     3.04580317e-04     0.00000000e+00    
           1.57892700e-05     3.00925603e-04     0.00000000e+00    
           1.42672516e-05     2.98880856e-04     0.00000000e+00    
           1.29044429e-05     2.96827697e-04     0.00000000e+00    
           1.18067428e-05     2.94984900e-04     0.00000000e+00    
           1.11411891e-05     2.93086836e-04     0.00000000e+00    
           1.08938420e-05     2.91052420e-04     0.00000000e+00    
           1.12983462e-05     2.88655167e-04     0.00000000e+00    
           1.24985581e-05     2.85805261e-04     0.00000000e+00    
           1.43484194e-05     2.84161360e-04     0.00000000e+00    
           1.55093167e-05     2.84519600e-04     0.00000000e+00    
           1.70829990e-05     2.86596740e-04     0.00000000e+00    
           9.95452774e-06     2.91946519e-04     0.00000000e+00    
           1.04092142e-05     2.92373006e-04     0.00000000e+00    
           1.03488146e-05     2.93169811e-04     0.00000000e+00    
           1.00035286e-05     2.94935482e-04     0.00000000e+00    
           9.49584046e-06     2.97575258e-04     0.00000000e+00    
           8.84217297e-06     3.00114014e-04     0.00000000e+00    
           7.91842103e-06     3.02626926e-04     0.00000000e+00    
           5.60478748e-06     3.05949536e-04     0.00000000e+00    
           4.59692637e-06     3.06549569e-04     0.00000000e+00    
           3.89677962e-06     3.06936679e-04     0.00000000e+00    
           3.59711294e-06     3.07018345e-04     0.00000000e+00    
           3.45095691e-06     3.06968373e-04     0.00000000e+00    
           3.32855075e-06     3.06816510e-04     0.00000000e+00    
           3.05038543e-06     3.06981761e-04     0.00000000e+00    
           2.95623113e-06     3.06391739e-04     0.00000000e+00    
           3.31815136e-06     3.04285175e-04     0.00000000e+00    
           3.78742106e-06     3.00884742e-04     0.00000000e+00    
           4.30913042e-06     2.97831517e-04     0.00000000e+00    
           5.04047057e-06     2.94728583e-04     0.00000000e+00    
           5.51037920e-06     2.92103563e-04     0.00000000e+00    
           5.86333044e-06     2.90356838e-04     0.00000000e+00    
           7.15461101e-06     2.90108583e-04     0.00000000e+00    
           1.58461644e-05     4.46509453e-04     0.00000000e+00    
           1.58145194e-05     4.44411911e-04     0.00000000e+00    
           1.58980183e-05     4.42670658e-04     0.00000000e+00    
           1.56636488e-05     4.41156561e-04     0.00000000e+00    
           1.50566821e-05     4.39673400e-04     0.00000000e+00    
           1.43885554e-05     4.38190560e-04     0.00000000e+00    
           1.39242966e-05     4.36598610e-04     0.00000000e+00    
           1.46892789e-05     4.32801549e-04     0.00000000e+00    
           1.52502789e-05     4.31852590e-04     0.00000000e+00    
           1.52673219e-05     4.32417844e-04     0.00000000e+00    
           1.50752066e-05     4.33997629e-04     0.00000000e+00    
           1.50401102e-05     4.36174887e-04     0.00000000e+00    
           1.55809248e-05     4.38317598e-04     0.00000000e+00    
           1.67052640e-05     4.40395641e-04     0.00000000e+00    
           1.92821681e-05    -4.63989136e-06     0.00000000e+00    
           2.01033508e-05    -2.28924068e-06     0.00000000e+00    
           2.03870313e-05    -3.42876433e-07     0.00000000e+00    
           1.99981805e-05     1.39988424e-06     0.00000000e+00    
           1.92487678e-05     3.43894362e-06     0.00000000e+00    
           1.84485525e-05     5.05849675e-06     0.00000000e+00    
           1.79162998e-05     4.83904705e-06     0.00000000e+00    
           1.74042143e-05     3.13412374e-06     0.00000000e+00    
           1.67590060e-05     8.96707718e-07     0.00000000e+00    
           1.24672433e-05     4.23013087e-04     0.00000000e+00    
           1.16943638e-05     4.21338598e-04     0.00000000e+00    
           1.05432337e-05     4.19336138e-04     0.00000000e+00    
           8.88304930e-06     4.16642666e-04     0.00000000e+00    
           7.63332628e-06     4.13888105e-04     0.00000000e+00    
           6.75782530e-06     4.11644840e-04     0.00000000e+00    
           6.73807244e-06     4.10687237e-04     0.00000000e+00    
           7.34634341e-06     4.11123503e-04     0.00000000e+00    
           8.29146211e-06     4.11933608e-04     0.00000000e+00    
           8.57904524e-06     4.12011606e-04     0.00000000e+00    
           9.01691874e-06     4.12190857e-04     0.00000000e+00    
           9.59245517e-06     4.12530615e-04     0.00000000e+00    
           1.04654182e-05     4.13027941e-04     0.00000000e+00    
           1.16079782e-05     4.13945352e-04     0.00000000e+00    
           1.28143693e-05     4.15571500e-04     0.00000000e+00    
           1.37101479e-05     4.17486590e-04     0.00000000e+00    
           1.47016117e-05    -2.84560901e-05     0.00000000e+00    
           1.47459623e-05    -2.68532913e-05     0.00000000e+00    
           1.45099320e-05    -2.57069078e-05     0.00000000e+00    
           1.40309658e-05    -2.50293415e-05     0.00000000e+00    
           1.35347982e-05    -2.50033172e-05     0.00000000e+00    
           1.52288021e-05     6.43109961e-05     0.00000000e+00    
           1.63794921e-05     6.56701959e-05     0.00000000e+00    
           1.75194764e-05     6.76600248e-05     0.00000000e+00    
           1.87137266e-05     7.04005433e-05     0.00000000e+00    
           1.94332624e-05     7.38052258e-05     0.00000000e+00    
           1.92528933e-05     7.74469663e-05     0.00000000e+00    
           1.90077317e-05     8.14400919e-05     0.00000000e+00    
           1.79930976e-05     8.33946397e-05     0.00000000e+00    
           1.69276427e-05     8.37579501e-05     0.00000000e+00    
           1.54803092e-05     8.22754373e-05     0.00000000e+00    
           1.37056313e-05     8.00804337e-05     0.00000000e+00    
           1.04110841e-05     7.46173100e-05     0.00000000e+00    
           9.09940900e-06     7.16052309e-05     0.00000000e+00    
           8.07530614e-06     6.86591302e-05     0.00000000e+00    
           7.38793051e-06     6.56510310e-05     0.00000000e+00    
           6.99889551e-06     6.26039764e-05     0.00000000e+00    
           6.91979176e-06     5.98384504e-05     0.00000000e+00    
           7.20543085e-06     5.82105640e-05     0.00000000e+00    
           7.67699021e-06     5.79000334e-05     0.00000000e+00    
           8.89287276e-06     5.85398629e-05     0.00000000e+00    
           1.03434932e-05     5.96428545e-05     0.00000000e+00    
           1.19704755e-05     6.09867566e-05     0.00000000e+00    
           1.87286514e-05     3.87563749e-04     0.00000000e+00    
           1.83637458e-05     3.88886721e-04     0.00000000e+00    
           1.79763956e-05     3.90076078e-04     0.00000000e+00    
           1.80804927e-05     3.90432047e-04     0.00000000e+00    
           1.86592715e-05     3.89505585e-04     0.00000000e+00    
           1.90376195e-05     3.87558423e-04     0.00000000e+00    
           1.95821631e-05     3.84816900e-04     0.00000000e+00    
           2.04394328e-05     3.82280414e-04     0.00000000e+00    
           2.12081959e-05     3.80201323e-04     0.00000000e+00    
           2.08014626e-05     3.76882235e-04     0.00000000e+00    
           2.02411429e-05     3.75400821e-04     0.00000000e+00    
           2.01494986e-05     3.74138559e-04     0.00000000e+00    
           2.03139825e-05     3.73491086e-04     0.00000000e+00    
           2.04921125e-05     3.73053364e-04     0.00000000e+00    
           2.06854711e-05     3.72526294e-04     0.00000000e+00    
           2.11139068e-05     3.71761911e-04     0.00000000e+00    
           2.14305965e-05     3.70519905e-04     0.00000000e+00    
           2.18402711e-05     3.71016067e-04     0.00000000e+00    
           2.19365429e-05     3.75851581e-04     0.00000000e+00    
           2.16522967e-05     3.78648780e-04     0.00000000e+00    
           2.11493243e-05     3.81180173e-04     0.00000000e+00    
           2.03439940e-05     3.83494800e-04     0.00000000e+00    
           1.96238398e-05     3.85029038e-04     0.00000000e+00    
           1.06578236e-05     3.65378073e-04     0.00000000e+00    
           1.04313949e-05     3.67816159e-04     0.00000000e+00    
           1.04308383e-05     3.69660149e-04     0.00000000e+00    
           1.01825963e-05     3.70562979e-04     0.00000000e+00    
           9.32993225e-06     3.70206777e-04     0.00000000e+00    
           8.26250471e-06     3.69439338e-04     0.00000000e+00    
           7.67620986e-06     3.69646063e-04     0.00000000e+00    
           6.99778366e-06     3.69875750e-04     0.00000000e+00    
           6.93249967e-06     3.68858979e-04     0.00000000e+00    
           7.50897880e-06     3.66728113e-04     0.00000000e+00    
           7.97280518e-06     3.63779953e-04     0.00000000e+00    
           8.80309926e-06     3.60508042e-04     0.00000000e+00    
           1.07567475e-05     3.56069795e-04     0.00000000e+00    
           1.18143216e-05     3.54869291e-04     0.00000000e+00    
           1.25589813e-05     3.53987911e-04     0.00000000e+00    
           1.31017123e-05     3.53047886e-04     0.00000000e+00    
           1.35844439e-05     3.52087693e-04     0.00000000e+00    
           1.40411039e-05     3.50967573e-04     0.00000000e+00    
           1.41444370e-05     3.50587303e-04     0.00000000e+00    
           1.36539957e-05     3.51441209e-04     0.00000000e+00    
           1.31013267e-05     3.53447336e-04     0.00000000e+00    
           1.25597453e-05     3.55989323e-04     0.00000000e+00    
           1.19835504e-05     3.58437857e-04     0.00000000e+00    
           1.15203866e-05     3.60744685e-04     0.00000000e+00    
           2.24679334e-05     3.82279191e-04     0.00000000e+00    
           2.38527737e-05     3.84220388e-04     0.00000000e+00    
           2.46489326e-05     3.86059837e-04     0.00000000e+00    
           2.48678716e-05     3.87536915e-04     0.00000000e+00    
           2.48153010e-05     3.88741872e-04     0.00000000e+00    
           2.45306692e-05     3.89627501e-04     0.00000000e+00    
           2.41529215e-05     3.90090747e-04     0.00000000e+00    
           2.36975084e-05     3.90099653e-04     0.00000000e+00    
           2.30660444e-05     3.89723224e-04     0.00000000e+00    
           2.22632261e-05     3.88990360e-04     0.00000000e+00    
           2.02931151e-05     3.86333442e-04     0.00000000e+00    
           1.94900149e-05     3.84285493e-04     0.00000000e+00    
           1.89916664e-05     3.81908496e-04     0.00000000e+00    
           1.89471884e-05     3.79216217e-04     0.00000000e+00    
           1.90014471e-05     3.76541051e-04     0.00000000e+00    
           1.93438609e-05     3.74566036e-04     0.00000000e+00    
           1.95863340e-05     3.74256168e-04     0.00000000e+00    
           1.98302714e-05     3.75390518e-04     0.00000000e+00    
           2.00826416e-05     3.77277844e-04     0.00000000e+00    
           2.03807103e-05     3.78934754e-04     0.00000000e+00    
           1.72423443e-05     1.64095793e-04     0.00000000e+00    
           1.47944220e-05     1.64449739e-04     0.00000000e+00    
           1.25065435e-05     1.64468132e-04     0.00000000e+00    
           1.05474028e-05     1.64599085e-04     0.00000000e+00    
           9.19339800e-06     1.64811237e-04     0.00000000e+00    
           8.06886237e-06     1.63089004e-04     0.00000000e+00    
           7.78077629e-06     1.59084826e-04     0.00000000e+00    
           8.25690040e-06     1.54113659e-04     0.00000000e+00    
           9.51096536e-06     1.49714222e-04     0.00000000e+00    
           1.15895018e-05     1.45892132e-04     0.00000000e+00    
           1.43510088e-05     1.42711317e-04     0.00000000e+00    
           2.06436252e-05     1.39562311e-04     0.00000000e+00    
           2.35298612e-05     1.39873868e-04     0.00000000e+00    
           2.58906821e-05     1.41025783e-04     0.00000000e+00    
           2.73535297e-05     1.42573146e-04     0.00000000e+00    
           2.82252258e-05     1.44652382e-04     0.00000000e+00    
           2.84750786e-05     1.47277256e-04     0.00000000e+00    
           2.81636003e-05     1.50164109e-04     0.00000000e+00    
           2.72992420e-05     1.53206405e-04     0.00000000e+00    
           2.59131357e-05     1.56303024e-04     0.00000000e+00    
           2.40554436e-05     1.59092291e-04     0.00000000e+00    
           2.18652312e-05     1.61455828e-04     0.00000000e+00    
           2.10903581e-05     7.34007626e-05     0.00000000e+00    
           2.13548865e-05     7.20019816e-05     0.00000000e+00    
           2.17998695e-05     7.05536877e-05     0.00000000e+00    
           2.23675761e-05     6.90581437e-05     0.00000000e+00    
           2.27650326e-05     6.85543346e-05     0.00000000e+00    
           2.28005574e-05     6.97036376e-05     0.00000000e+00    
           2.26479478e-05     7.22004479e-05     0.00000000e+00    
           2.20191887e-05     7.52937485e-05     0.00000000e+00    
           2.10332564e-05     7.75575099e-05     0.00000000e+00    
           1.95155189e-05     8.05162417e-05     0.00000000e+00    
           1.96745605e-05     8.22936927e-05     0.00000000e+00    
           2.00256400e-05     8.44784881e-05     0.00000000e+00    
           2.01097318e-05     8.64627145e-05     0.00000000e+00    
           2.04592834e-05     8.78273713e-05     0.00000000e+00    
           2.06187469e-05     8.80669686e-05     0.00000000e+00    
           2.06984496e-05     8.71278389e-05     0.00000000e+00    
           2.06246623e-05     8.55045873e-05     0.00000000e+00    
           2.05549750e-05     8.37536936e-05     0.00000000e+00    
           2.05583783e-05     7.99623958e-05     0.00000000e+00    
           2.06703899e-05     7.80940973e-05     0.00000000e+00    
           2.06518125e-05     7.64124488e-05     0.00000000e+00    
           2.04773823e-05     7.53391068e-05     0.00000000e+00    
           8.95142603e-06     2.19805195e-04     0.00000000e+00    
           7.80775099e-06     2.20229820e-04     0.00000000e+00    
           7.07523395e-06     2.20184491e-04     0.00000000e+00    
           6.75493084e-06     2.20265094e-04     0.00000000e+00    
           6.32198453e-06     2.20426155e-04     0.00000000e+00    
           6.02498358e-06     2.20401984e-04     0.00000000e+00    
           6.14306646e-06     2.19984024e-04     0.00000000e+00    
           6.82915015e-06     2.18454690e-04     0.00000000e+00    
           7.95782216e-06     2.16058703e-04     0.00000000e+00    
           9.06857076e-06     2.13791442e-04     0.00000000e+00    
           1.00603866e-05     2.11665538e-04     0.00000000e+00    
           1.18087992e-05     2.07605088e-04     0.00000000e+00    
           1.27450639e-05     2.05509088e-04     0.00000000e+00    
           1.36381841e-05     2.03694668e-04     0.00000000e+00    
           1.41678047e-05     2.02355819e-04     0.00000000e+00    
           1.45097265e-05     2.01729039e-04     0.00000000e+00    
           1.45933582e-05     2.02406824e-04     0.00000000e+00    
           1.46230832e-05     2.04389580e-04     0.00000000e+00    
           1.47223982e-05     2.06982077e-04     0.00000000e+00    
           1.43615862e-05     2.09733596e-04     0.00000000e+00    