<?xml version="1.0"?>
<VTKFile type="UnstructuredGrid" version="0.1">
  <UnstructuredGrid>
    <Piece NumberOfPoints="1034" NumberOfCells="1614">
      <Points>
        <DataArray type="Float32" NumberOfComponents="3">
           5.21582007e-01     5.11657000e-01     0.00000000e+00    
           5.07319987e-01     5.11657000e-01     0.00000000e+00    
           4.65243995e-01     5.17907977e-01     0.00000000e+00    
           4.65243995e-01     5.04921973e-01     0.00000000e+00    
           4.75246996e-01     5.11415005e-01     0.00000000e+00    
           5.33852994e-01     5.04921973e-01     0.00000000e+00    
           5.33852994e-01     5.17907977e-01     0.00000000e+00    
           4.83779997e-01     5.34618974e-01     0.00000000e+00    
           4.68984991e-01     5.34618974e-01     0.00000000e+00    
           4.76381987e-01     5.23841977e-01     0.00000000e+00    
           4.68984991e-01     4.66010004e-01     0.00000000e+00    
           4.83779997e-01     4.66010004e-01     0.00000000e+00    
           4.99920011e-01     5.34618974e-01     0.00000000e+00    
           4.89203990e-01     5.34618974e-01     0.00000000e+00    
           4.94562000e-01     5.22280991e-01     0.00000000e+00    
           4.89203990e-01     4.66010004e-01     0.00000000e+00    
           4.99920011e-01     4.66010004e-01     0.00000000e+00    
           5.32517016e-01     4.74112004e-01     0.00000000e+00    
           5.17961025e-01     4.74112004e-01     0.00000000e+00    
           5.33852994e-01     5.19801974e-01     0.00000000e+00    
           5.33852994e-01     5.29603004e-01     0.00000000e+00    
           5.19536972e-01     5.24702013e-01     0.00000000e+00    
           4.65243995e-01     5.29603004e-01     0.00000000e+00    
           4.65243995e-01     5.19801974e-01     0.00000000e+00    
           4.92487997e-01     5.17117977e-01     0.00000000e+00    
           4.76904988e-01     5.17117977e-01     0.00000000e+00    
           5.17996013e-01     5.27033985e-01     0.00000000e+00    
           5.04473984e-01     5.27033985e-01     0.00000000e+00    
           5.08446991e-01     4.83435005e-01     0.00000000e+00    
           4.94414002e-01     4.83435005e-01     0.00000000e+00    
           4.65243995e-01     4.83101994e-01     0.00000000e+00    
           4.65243995e-01     4.74415004e-01     0.00000000e+00    
           4.78336990e-01     4.78758007e-01     0.00000000e+00    
           5.33852994e-01     4.74415004e-01     0.00000000e+00    
           5.33852994e-01     4.83101994e-01     0.00000000e+00    
           4.80668008e-01     4.95810986e-01     0.00000000e+00    
           4.66084987e-01     4.95810986e-01     0.00000000e+00    
           4.93930012e-01     4.79214013e-01     0.00000000e+00    
           4.78967011e-01     4.79214013e-01     0.00000000e+00    
           5.09284973e-01     4.97658014e-01     0.00000000e+00    
           4.95503992e-01     4.97658014e-01     0.00000000e+00    
           5.33011973e-01     5.01751006e-01     0.00000000e+00    
           5.17829001e-01     5.01751006e-01     0.00000000e+00    
           4.95451003e-01     5.00564992e-01     0.00000000e+00    
           4.80922014e-01     5.00564992e-01     0.00000000e+00    
           5.25367022e-01     4.88312006e-01     0.00000000e+00    
           5.09521008e-01     4.88312006e-01     0.00000000e+00    
           4.65243995e-01     5.34618974e-01     0.00000000e+00    
           4.65243995e-01     4.66010004e-01     0.00000000e+00    
           5.33852994e-01     4.66010004e-01     0.00000000e+00    
           5.33852994e-01     5.34618974e-01     0.00000000e+00    
           5.21338999e-01     5.13502657e-01     0.00000000e+00    
           5.20626605e-01     5.15222490e-01     0.00000000e+00    
           5.19493401e-01     5.16699374e-01     0.00000000e+00    
           5.18016517e-01     5.17832637e-01     0.00000000e+00    
           5.16296625e-01     5.18545032e-01     0.00000000e+00    
           5.14451027e-01     5.18787980e-01     0.00000000e+00    
           5.12605369e-01     5.18545032e-01     0.00000000e+00    
           5.10885477e-01     5.17832637e-01     0.00000000e+00    
           5.09408593e-01     5.16699374e-01     0.00000000e+00    
           5.08275390e-01     5.15222490e-01     0.00000000e+00    
           5.07562995e-01     5.13502657e-01     0.00000000e+00    
           5.07562995e-01     5.09811342e-01     0.00000000e+00    
           5.08275390e-01     5.08091509e-01     0.00000000e+00    
           5.09408593e-01     5.06614625e-01     0.00000000e+00    
           5.10885477e-01     5.05481362e-01     0.00000000e+00    
           5.12605369e-01     5.04768968e-01     0.00000000e+00    
           5.14451027e-01     5.04526019e-01     0.00000000e+00    
           5.16296625e-01     5.04768968e-01     0.00000000e+00    
           5.18016517e-01     5.05481362e-01     0.00000000e+00    
           5.19493401e-01     5.06614625e-01     0.00000000e+00    
           5.20626605e-01     5.08091509e-01     0.00000000e+00    
           5.21338999e-01     5.09811342e-01     0.00000000e+00    
           4.66931671e-01     5.04409373e-01     0.00000000e+00    
           4.68693614e-01     5.04328012e-01     0.00000000e+00    
           4.70421344e-01     5.04682958e-01     0.00000000e+00    
           4.72008497e-01     5.05452335e-01     0.00000000e+00    
           4.73357379e-01     5.06588817e-01     0.00000000e+00    
           4.74384934e-01     5.08022368e-01     0.00000000e+00    
           4.75027919e-01     5.09664834e-01     0.00000000e+00    
           4.75028187e-01     5.13165236e-01     0.00000000e+00    
           4.74385172e-01     5.14807761e-01     0.00000000e+00    
           4.73357558e-01     5.16241372e-01     0.00000000e+00    
           4.72008646e-01     5.17377913e-01     0.00000000e+00    
           4.70421433e-01     5.18147290e-01     0.00000000e+00    
           4.68693614e-01     5.18502235e-01     0.00000000e+00    
           4.66931641e-01     5.18420875e-01     0.00000000e+00    
           5.32303810e-01     5.16964078e-01     0.00000000e+00    
           5.31043947e-01     5.15658796e-01     0.00000000e+00    
           5.30155540e-01     5.14077127e-01     0.00000000e+00    
           5.29696345e-01     5.12322068e-01     0.00000000e+00    
           5.29696345e-01     5.10507941e-01     0.00000000e+00    
           5.30155540e-01     5.08752882e-01     0.00000000e+00    
           5.31043947e-01     5.07171214e-01     0.00000000e+00    
           5.32303810e-01     5.05865932e-01     0.00000000e+00    
           4.68517244e-01     5.32760799e-01     0.00000000e+00    
           4.68509018e-01     5.30844629e-01     0.00000000e+00    
           4.68960851e-01     5.28982460e-01     0.00000000e+00    
           4.69846308e-01     5.27283132e-01     0.00000000e+00    
           4.71113682e-01     5.25845945e-01     0.00000000e+00    
           4.72688884e-01     5.24754822e-01     0.00000000e+00    
           4.74479854e-01     5.24073541e-01     0.00000000e+00    
           4.78284091e-01     5.24073601e-01     0.00000000e+00    
           4.80075032e-01     5.24754822e-01     0.00000000e+00    
           4.81650203e-01     5.25845885e-01     0.00000000e+00    
           4.82917547e-01     5.27283013e-01     0.00000000e+00    
           4.83803004e-01     5.28982282e-01     0.00000000e+00    
           4.84254897e-01     5.30844331e-01     0.00000000e+00    
           4.84246761e-01     5.32760441e-01     0.00000000e+00    
           4.82887864e-01     4.67691004e-01     0.00000000e+00    
           4.81620818e-01     4.69110936e-01     0.00000000e+00    
           4.80051905e-01     4.70188022e-01     0.00000000e+00    
           4.78271484e-01     4.70860153e-01     0.00000000e+00    
           4.76382166e-01     4.71088618e-01     0.00000000e+00    
           4.74492878e-01     4.70860243e-01     0.00000000e+00    
           4.72712427e-01     4.70188200e-01     0.00000000e+00    
           4.71143454e-01     4.69111174e-01     0.00000000e+00    
           4.69876349e-01     4.67691302e-01     0.00000000e+00    
           4.88103986e-01     5.33086061e-01     0.00000000e+00    
           4.87431526e-01     5.31323195e-01     0.00000000e+00    
           4.87231195e-01     5.29447019e-01     0.00000000e+00    
           4.87516224e-01     5.27581930e-01     0.00000000e+00    
           4.88267750e-01     5.25851250e-01     0.00000000e+00    
           4.89436030e-01     5.24369657e-01     0.00000000e+00    
           4.90943670e-01     5.23235261e-01     0.00000000e+00    
           4.92690891e-01     5.22523046e-01     0.00000000e+00    
           4.96432930e-01     5.22523701e-01     0.00000000e+00    
           4.98180002e-01     5.23235798e-01     0.00000000e+00    
           4.99687493e-01     5.24370134e-01     0.00000000e+00    
           5.00855684e-01     5.25851607e-01     0.00000000e+00    
           5.01607120e-01     5.27582109e-01     0.00000000e+00    
           5.01892149e-01     5.29447079e-01     0.00000000e+00    
           5.01691818e-01     5.31323016e-01     0.00000000e+00    
           5.01019418e-01     5.33085763e-01     0.00000000e+00    
           4.98371124e-01     4.67269689e-01     0.00000000e+00    
           4.96539861e-01     4.68064904e-01     0.00000000e+00    
           4.94562000e-01     4.68336672e-01     0.00000000e+00    
           4.92584139e-01     4.68064904e-01     0.00000000e+00    
           4.90752876e-01     4.67269689e-01     0.00000000e+00    
           5.32269001e-01     4.75995690e-01     0.00000000e+00    
           5.31541944e-01     4.77750987e-01     0.00000000e+00    
           5.30385315e-01     4.79258329e-01     0.00000000e+00    
           5.28877974e-01     4.80414927e-01     0.00000000e+00    
[...]
      <PointData>
        <DataArray type="Float32" Name="Displacement" NumberOfComponents="3">
           6.91408495e-05     1.02954952e-03     0.00000000e+00    
           6.06618414e-05     1.04022527e-03     0.00000000e+00    
           2.37936911e-05     1.04027102e-03     0.00000000e+00    
           6.24601525e-05     1.01835188e-03     0.00000000e+00    
           4.99665075e-05     1.06115267e-03     0.00000000e+00    
           6.24601525e-05     1.01835188e-03     0.00000000e+00    
           2.37936911e-05     1.04027102e-03     0.00000000e+00    
           4.43227182e-05     1.52917055e-03     0.00000000e+00    
           3.67835382e-05     1.50286185e-03     0.00000000e+00    
           6.09184790e-05     1.49729475e-03     0.00000000e+00    
           3.67835382e-05    -4.71381936e-05     0.00000000e+00    
           4.43227182e-05    -2.08293986e-05     0.00000000e+00    
           5.15338870e-05     1.45533646e-03     0.00000000e+00    
           4.80109265e-05     1.47851335e-03     0.00000000e+00    
           2.15851142e-05     1.44582894e-03     0.00000000e+00    
           4.80109265e-05    -7.14866546e-05     0.00000000e+00    
           5.15338870e-05    -9.46635482e-05     0.00000000e+00    
           3.98213233e-05     2.22750736e-04     0.00000000e+00    
           3.22632259e-05     2.10157625e-04     0.00000000e+00    
           7.70784245e-05     1.30699167e-03     0.00000000e+00    
           6.43570020e-05     1.32548052e-03     0.00000000e+00    
           6.68480643e-05     1.30302319e-03     0.00000000e+00    
           6.43570020e-05     1.32548052e-03     0.00000000e+00    
           7.70784245e-05     1.30699167e-03     0.00000000e+00    
           5.26190634e-05     1.23714772e-03     0.00000000e+00    
           4.46058402e-05     1.18585979e-03     0.00000000e+00    
           6.47269553e-05     1.34438172e-03     0.00000000e+00    
           6.15413664e-05     1.38661359e-03     0.00000000e+00    
           5.83041183e-05     5.06925804e-04     0.00000000e+00    
           5.12546249e-05     4.35631431e-04     0.00000000e+00    
           3.24942412e-05     2.69123149e-04     0.00000000e+00    
           5.33470629e-05     2.54198210e-04     0.00000000e+00    
           4.68482649e-05     2.94020487e-04     0.00000000e+00    
           5.33470629e-05     2.54198210e-04     0.00000000e+00    
           3.24942412e-05     2.69123149e-04     0.00000000e+00    
           4.12853733e-05     7.40482763e-04     0.00000000e+00    
           3.53499418e-05     7.63616292e-04     0.00000000e+00    
           5.93146942e-05     3.75553413e-04     0.00000000e+00    
           5.34143801e-05     3.00731452e-04     0.00000000e+00    
           6.91128662e-05     6.89510838e-04     0.00000000e+00    
           6.09475392e-05     7.31106440e-04     0.00000000e+00    
           4.99875932e-05     8.87681963e-04     0.00000000e+00    
           4.04666789e-05     9.11382609e-04     0.00000000e+00    
           5.94558951e-05     7.55435962e-04     0.00000000e+00    
           5.25491560e-05     7.87463272e-04     0.00000000e+00    
           8.73416720e-05     5.60040760e-04     0.00000000e+00    
           7.77466485e-05     5.61811845e-04     0.00000000e+00    
           0.00000000e+00     1.55000004e-03     0.00000000e+00    
           0.00000000e+00     0.00000000e+00     0.00000000e+00    
           0.00000000e+00     0.00000000e+00     0.00000000e+00    
           0.00000000e+00     1.55000004e-03     0.00000000e+00    
           7.00164310e-05     1.03469158e-03     0.00000000e+00    
           7.08183725e-05     1.03813782e-03     0.00000000e+00    
           7.10962777e-05     1.04132318e-03     0.00000000e+00    
           7.08509760e-05     1.04393472e-03     0.00000000e+00    
           7.02812249e-05     1.04586501e-03     0.00000000e+00    
           6.94031478e-05     1.04732462e-03     0.00000000e+00    
           6.85275518e-05     1.04821834e-03     0.00000000e+00    
           6.75969277e-05     1.04848982e-03     0.00000000e+00    
           6.64959371e-05     1.04816968e-03     0.00000000e+00    
           6.43535168e-05     1.04656676e-03     0.00000000e+00    
           6.23429150e-05     1.04387174e-03     0.00000000e+00    
           5.95567508e-05     1.03602314e-03     0.00000000e+00    
           5.90795316e-05     1.03283825e-03     0.00000000e+00    
           5.85785892e-05     1.03020878e-03     0.00000000e+00    
           5.80922715e-05     1.02813786e-03     0.00000000e+00    
           5.80037085e-05     1.02625228e-03     0.00000000e+00    
           5.83711626e-05     1.02472096e-03     0.00000000e+00    
           5.96994614e-05     1.02329568e-03     0.00000000e+00    
           6.13084994e-05     1.02241396e-03     0.00000000e+00    
           6.34302924e-05     1.02264760e-03     0.00000000e+00    
           6.49450230e-05     1.02353550e-03     0.00000000e+00    
           6.67733693e-05     1.02563051e-03     0.00000000e+00    
           6.57645942e-05     1.02275261e-03     0.00000000e+00    
           6.73819886e-05     1.02826918e-03     0.00000000e+00    
           6.71924863e-05     1.03416166e-03     0.00000000e+00    
           6.55545300e-05     1.04012375e-03     0.00000000e+00    
           6.29811475e-05     1.04593951e-03     0.00000000e+00    
           5.97470098e-05     1.05131324e-03     0.00000000e+00    
           5.54742001e-05     1.05686265e-03     0.00000000e+00    
           4.34126741e-05     1.06403057e-03     0.00000000e+00    
           3.72509676e-05     1.06433348e-03     0.00000000e+00    
           3.19756073e-05     1.06312393e-03     0.00000000e+00    
           2.80002478e-05     1.06024521e-03     0.00000000e+00    
           2.51991751e-05     1.05626986e-03     0.00000000e+00    
           2.34605413e-05     1.05147448e-03     0.00000000e+00    
           2.29189809e-05     1.04602717e-03     0.00000000e+00    
           2.61717414e-05     1.03436748e-03     0.00000000e+00    
           3.00032025e-05     1.02897512e-03     0.00000000e+00    
           3.43055290e-05     1.02360290e-03     0.00000000e+00    
           3.88967601e-05     1.01873325e-03     0.00000000e+00    
           4.46085833e-05     1.01421238e-03     0.00000000e+00    
           5.01445393e-05     1.01233309e-03     0.00000000e+00    
           5.45410076e-05     1.01309642e-03     0.00000000e+00    
           5.86684910e-05     1.01510843e-03     0.00000000e+00    
           3.93523296e-05     1.49773387e-03     0.00000000e+00    
           4.36390401e-05     1.49318762e-03     0.00000000e+00    
           4.90213752e-05     1.49039633e-03     0.00000000e+00    
           5.33435195e-05     1.48958375e-03     0.00000000e+00    
           5.64007896e-05     1.49028876e-03     0.00000000e+00    
           5.85451853e-05     1.49196305e-03     0.00000000e+00    
           5.99998202e-05     1.49421499e-03     0.00000000e+00    
           6.11965879e-05     1.50093995e-03     0.00000000e+00    
           6.03985245e-05     1.50516140e-03     0.00000000e+00    
           5.82692301e-05     1.50940893e-03     0.00000000e+00    
           5.48030039e-05     1.51315355e-03     0.00000000e+00    
           5.12933620e-05     1.51745416e-03     0.00000000e+00    
           4.87230791e-05     1.52200554e-03     0.00000000e+00    
           4.66856181e-05     1.52582314e-03     0.00000000e+00    
           4.16471630e-05    -1.93769865e-05     0.00000000e+00    
           3.88368098e-05    -1.92985826e-05     0.00000000e+00    
           3.63493818e-05    -2.04509051e-05     0.00000000e+00    
           3.40404222e-05    -2.25045915e-05     0.00000000e+00    
           3.23519380e-05    -2.56695021e-05     0.00000000e+00    
           3.15443394e-05    -2.94538313e-05     0.00000000e+00    
           3.19081009e-05    -3.37277634e-05     0.00000000e+00    
           3.33185926e-05    -3.81648497e-05     0.00000000e+00    
           3.48125868e-05    -4.26352381e-05     0.00000000e+00    
           4.46562553e-05     1.47841708e-03     0.00000000e+00    
           4.07963889e-05     1.47637131e-03     0.00000000e+00    
           3.62709725e-05     1.47299643e-03     0.00000000e+00    
           3.10139221e-05     1.46793516e-03     0.00000000e+00    
           2.68346867e-05     1.46366551e-03     0.00000000e+00    
           2.33440023e-05     1.45930506e-03     0.00000000e+00    
           2.13276962e-05     1.45452388e-03     0.00000000e+00    
           2.07826670e-05     1.44984573e-03     0.00000000e+00    
           2.32696602e-05     1.44258386e-03     0.00000000e+00    
           2.55611230e-05     1.44014845e-03     0.00000000e+00    
           2.84126090e-05     1.43874146e-03     0.00000000e+00    
           3.17768463e-05     1.43842085e-03     0.00000000e+00    
           3.59341575e-05     1.43932540e-03     0.00000000e+00    
           4.06157887e-05     1.44146569e-03     0.00000000e+00    
           4.52704480e-05     1.44541869e-03     0.00000000e+00    
           4.88626647e-05     1.45013561e-03     0.00000000e+00    
           5.33844868e-05    -8.95053672e-05     0.00000000e+00    
           5.43108981e-05    -8.44454698e-05     0.00000000e+00    
           5.40988367e-05    -7.98165202e-05     0.00000000e+00    
           5.28031087e-05    -7.59728355e-05     0.00000000e+00    
           5.06696997e-05    -7.30926113e-05     0.00000000e+00    
           3.75592754e-05     2.25467069e-04     0.00000000e+00    
           3.49273287e-05     2.26547665e-04     0.00000000e+00    
           3.26124427e-05     2.27735305e-04     0.00000000e+00    
           3.12108205e-05     2.28342586e-04     0.00000000e+00    
           3.01213313e-05     2.28370045e-04     0.00000000e+00    
           2.91098804e-05     2.27328812e-04     0.00000000e+00    
           2.87514304e-05     2.25823795e-04     0.00000000e+00    
           2.87828025e-05     2.23624491e-04     0.00000000e+00    
           2.96336038e-05     2.21141439e-04     0.00000000e+00    
           3.07480659e-05     2.18382862e-04     0.00000000e+00    
           3.11773692e-05     2.14938118e-04     0.00000000e+00    
           3.37290257e-05     2.06487166e-04     0.00000000e+00    
           3.61393395e-05     2.03241652e-04     0.00000000e+00    
           3.84663508e-05     2.01979783e-04     0.00000000e+00    
           4.01075558e-05     2.01816700e-04     0.00000000e+00    
           4.13414855e-05     2.02514508e-04     0.00000000e+00    
           4.22162448e-05     2.03849515e-04     0.00000000e+00    
           4.26014667e-05     2.05663848e-04     0.00000000e+00    
           4.24670434e-05     2.08114638e-04     0.00000000e+00    
           4.24999416e-05     2.10825048e-04     0.00000000e+00    
           4.24396349e-05     2.14327214e-04     0.00000000e+00    
           4.16459225e-05     2.18341665e-04     0.00000000e+00    
           6.26229958e-05     1.32542709e-03     0.00000000e+00    
           6.15322424e-05     1.32490497e-03     0.00000000e+00    
           6.07665643e-05     1.32363173e-03     0.00000000e+00    
           6.07119327e-05     1.32167793e-03     0.00000000e+00    
           6.13422671e-05     1.31920190e-03     0.00000000e+00    
           6.23049345e-05     1.31652365e-03     0.00000000e+00    
           6.34991738e-05     1.31331594e-03     0.00000000e+00    
           6.52415110e-05     1.30972941e-03     0.00000000e+00    
           6.66327760e-05     1.30641845e-03     0.00000000e+00    
           6.69362707e-05     1.29912549e-03     0.00000000e+00    
           6.77139178e-05     1.29600603e-03     0.00000000e+00    
           6.98809963e-05     1.29396375e-03     0.00000000e+00    
           7.22785990e-05     1.29336817e-03     0.00000000e+00    
           7.44456411e-05     1.29383756e-03     0.00000000e+00    
           7.64321812e-05     1.29520393e-03     0.00000000e+00    
           7.78716276e-05     1.29744934e-03     0.00000000e+00    
           7.82933130e-05     1.30007195e-03     0.00000000e+00    
           7.80756163e-05     1.30336615e-03     0.00000000e+00    
           7.61623087e-05     1.31052523e-03     0.00000000e+00    
           7.49581086e-05     1.31460093e-03     0.00000000e+00    
           7.30937609e-05     1.31885777e-03     0.00000000e+00    
           6.99339507e-05     1.32264907e-03     0.00000000e+00    
           6.67192871e-05     1.32466841e-03     0.00000000e+00    
           4.66825732e-05     1.24067697e-03     0.00000000e+00    
           4.04930252e-05     1.24207605e-03     0.00000000e+00    
           3.55951015e-05     1.24065008e-03     0.00000000e+00    
           3.13083692e-05     1.23785867e-03     0.00000000e+00    
           2.75777456e-05     1.23382709e-03     0.00000000e+00    
           2.46914697e-05     1.22860225e-03     0.00000000e+00    
           2.32672755e-05     1.22236426e-03     0.00000000e+00    
           2.34849467e-05     1.21564523e-03     0.00000000e+00    
           2.54614788e-05     1.20883749e-03     0.00000000e+00    
           2.92687328e-05     1.20257144e-03     0.00000000e+00    
           3.35995719e-05     1.19653146e-03     0.00000000e+00    
           3.86612446e-05     1.19036343e-03     0.00000000e+00    
           5.14205385e-05     1.18276011e-03     0.00000000e+00    
           5.82925859e-05     1.18211447e-03     0.00000000e+00    
           6.42610757e-05     1.18343893e-03     0.00000000e+00    
           6.89951557e-05     1.18661777e-03     0.00000000e+00    
           7.22683544e-05     1.19099498e-03     0.00000000e+00    
           7.42836419e-05     1.19639817e-03     0.00000000e+00    
           7.48628227e-05     1.20261125e-03     0.00000000e+00    
           7.36285874e-05     1.20911736e-03     0.00000000e+00    
           7.09689411e-05     1.21562637e-03     0.00000000e+00    
           6.71053785e-05     1.22164446e-03     0.00000000e+00    
           6.26508991e-05     1.22727919e-03     0.00000000e+00    
           5.79222142e-05     1.23251218e-03     0.00000000e+00    
           7.12124820e-05     1.34905765e-03     0.00000000e+00    
           7.70788101e-05     1.35501067e-03     0.00000000e+00    
           8.11157151e-05     1.36141200e-03     0.00000000e+00    
           8.33511222e-05     1.36779936e-03     0.00000000e+00    
           8.39169152e-05     1.37403153e-03     0.00000000e+00    
           8.28554621e-05     1.37969037e-03     0.00000000e+00    
           8.05423988e-05     1.38433021e-03     0.00000000e+00    
           7.71254417e-05     1.38759229e-03     0.00000000e+00    
           7.26222424e-05     1.38909044e-03     0.00000000e+00    
           6.73310205e-05     1.38867798e-03     0.00000000e+00    
           5.58068969e-05     1.38219364e-03     0.00000000e+00    
           5.12832630e-05     1.37659081e-03     0.00000000e+00    
           4.79379050e-05     1.37030520e-03     0.00000000e+00    
           4.59785551e-05     1.36377895e-03     0.00000000e+00    
           4.47745515e-05     1.35741208e-03     0.00000000e+00    
           4.51250271e-05     1.35159516e-03     0.00000000e+00    
           4.68403414e-05     1.34663144e-03     0.00000000e+00    
           4.98879854e-05     1.34300254e-03     0.00000000e+00    
           5.41200461e-05     1.34167937e-03     0.00000000e+00    
           5.89636329e-05     1.34190056e-03     0.00000000e+00    
           4.99267881e-05     5.08931349e-04     0.00000000e+00    
           4.13754533e-05     5.08162775e-04     0.00000000e+00    
           3.35783516e-05     5.05084463e-04     0.00000000e+00    
           2.75695766e-05     4.99620219e-04     0.00000000e+00    
           2.35619245e-05     4.92216845e-04     0.00000000e+00    
           2.16379958e-05     4.83587704e-04     0.00000000e+00    
           2.20009442e-05     4.74314933e-04     0.00000000e+00    
           2.46827276e-05     4.65108402e-04     0.00000000e+00    
           2.86206086e-05     4.56233771e-04     0.00000000e+00    
           3.45173430e-05     4.47898579e-04     0.00000000e+00    
           4.21274417e-05     4.40754899e-04     0.00000000e+00    
           6.06431822e-05     4.34164482e-04     0.00000000e+00    
           6.95279232e-05     4.35569877e-04     0.00000000e+00    
           7.74209693e-05     4.39349475e-04     0.00000000e+00    
           8.31367943e-05     4.45055950e-04     0.00000000e+00    
           8.69705254e-05     4.52450971e-04     0.00000000e+00    
           8.85375703e-05     4.61122225e-04     0.00000000e+00    
           8.78992942e-05     4.70269268e-04     0.00000000e+00    
           8.50379292e-05     4.79321694e-04     0.00000000e+00    
           8.05154123e-05     4.87893441e-04     0.00000000e+00    
           7.45564976e-05     4.95477987e-04     0.00000000e+00    
           6.72046663e-05     5.02033625e-04     0.00000000e+00    
           5.75396007e-05     2.55263236e-04     0.00000000e+00    
           6.07162183e-05     2.57099950e-04     0.00000000e+00    
           6.29269998e-05     2.60424393e-04     0.00000000e+00    
           6.39891296e-05     2.64756469e-04     0.00000000e+00    
           6.38617930e-05     2.69557524e-04     0.00000000e+00    
           6.24380918e-05     2.74744816e-04     0.00000000e+00    
           6.01161591e-05     2.79979140e-04     0.00000000e+00    
           5.66840099e-05     2.85884715e-04     0.00000000e+00    
           5.20424073e-05     2.90847820e-04     0.00000000e+00    
           4.19620592e-05     2.95802136e-04     0.00000000e+00    
           3.78171753e-05     2.97083141e-04     0.00000000e+00    
           3.43736137e-05     2.97308579e-04     0.00000000e+00    
           3.11577314e-05     2.95591773e-04     0.00000000e+00    
           2.92050809e-05     2.92645593e-04     0.00000000e+00    
           2.79635460e-05     2.88744341e-04     0.00000000e+00    
           2.76818009e-05     2.84150650e-04     0.00000000e+00    
           2.85138176e-05     2.79186439e-04     0.00000000e+00    
           3.03481665e-05     2.74032674e-04     0.00000000e+00    
           3.54909498e-05     2.63959926e-04     0.00000000e+00    
           3.95949828e-05     2.59000779e-04     0.00000000e+00    
           4.44135585e-05     2.55266350e-04     0.00000000e+00    
           4.87795514e-05     2.54119543e-04     0.00000000e+00    
           4.30439759e-05     7.44381803e-04     0.00000000e+00    
           4.49176732e-05     7.47592654e-04     0.00000000e+00    
           4.67289210e-05     7.51270331e-04     0.00000000e+00    
           4.84977245e-05     7.55493413e-04     0.00000000e+00    
           4.91934443e-05     7.59592454e-04     0.00000000e+00    
           4.90731582e-05     7.63029908e-04     0.00000000e+00    
           4.82470568e-05     7.65743142e-04     0.00000000e+00    
           4.70728701e-05     7.67711666e-04     0.00000000e+00    
           4.54822330e-05     7.68799335e-04     0.00000000e+00    
           4.28105195e-05     7.68734317e-04     0.00000000e+00    
           3.91912254e-05     7.66974001e-04     0.00000000e+00    
           3.24386056e-05     7.59291113e-04     0.00000000e+00    
           3.04394198e-05     7.54466513e-04     0.00000000e+00    
           2.91899705e-05     7.50071311e-04     0.00000000e+00    
           2.77486415e-05     7.46066798e-04     0.00000000e+00    
           2.71083409e-05     7.42197211e-04     0.00000000e+00    
           2.73327405e-05     7.38614297e-04     0.00000000e+00    
           2.85466485e-05     7.35779002e-04     0.00000000e+00    
           3.06450420e-05     7.33970315e-04     0.00000000e+00    
           3.32499076e-05     7.33384921e-04     0.00000000e+00    