<?xml version="1.0"?>
<VTKFile type="UnstructuredGrid" version="0.1">
  <UnstructuredGrid>
    <Piece NumberOfPoints="1034" NumberOfCells="1614">
      <Points>
        <DataArray type="Float32" NumberOfComponents="3">
           5.21582007e-01     5.11657000e-01     0.00000000e+00    
           5.07319987e-01     5.11657000e-01     0.00000000e+00    
           4.65243995e-01     5.17907977e-01     0.00000000e+00    
           4.65243995e-01     5.04921973e-01     0.00000000e+00    
           4.75246996e-01     5.11415005e-01     0.00000000e+00    
           5.33852994e-01     5.04921973e-01     0.00000000e+00    
           5.33852994e-01     5.17907977e-01     0.00000000e+00    
           4.83779997e-01     5.34618974e-01     0.00000000e+00    
           4.68984991e-01     5.34618974e-01     0.00000000e+00    
           4.76381987e-01     5.23841977e-01     0.00000000e+00    
           4.68984991e-01     4.66010004e-01     0.00000000e+00    
           4.83779997e-01     4.66010004e-01     0.00000000e+00    
           4.99920011e-01     5.34618974e-01     0.00000000e+00    
           4.89203990e-01     5.34618974e-01     0.00000000e+00    
           4.94562000e-01     5.22280991e-01     0.00000000e+00    
           4.89203990e-01     4.66010004e-01     0.00000000e+00    
           4.99920011e-01     4.66010004e-01     0.00000000e+00    
           5.32517016e-01     4.74112004e-01     0.00000000e+00    
           5.17961025e-01     4.74112004e-01     0.00000000e+00    
           5.33852994e-01     5.19801974e-01     0.00000000e+00    
           5.33852994e-01     5.29603004e-01     0.00000000e+00    
           5.19536972e-01     5.24702013e-01     0.00000000e+00    
           4.65243995e-01     5.29603004e-01     0.00000000e+00    
           4.65243995e-01     5.19801974e-01     0.00000000e+00    
           4.92487997e-01     5.17117977e-01     0.00000000e+00    
           4.76904988e-01     5.17117977e-01     0.00000000e+00    
           5.17996013e-01     5.27033985e-01     0.00000000e+00    
           5.04473984e-01     5.27033985e-01     0.00000000e+00    
           5.08446991e-01     4.83435005e-01     0.00000000e+00    
           4.94414002e-01     4.83435005e-01     0.00000000e+00    
           4.65243995e-01     4.83101994e-01     0.00000000e+00    
           4.65243995e-01     4.74415004e-01     0.00000000e+00    
           4.78336990e-01     4.78758007e-01     0.00000000e+00    
           5.33852994e-01     4.74415004e-01     0.00000000e+00    
           5.33852994e-01     4.83101994e-01     0.00000000e+00    
           4.80668008e-01     4.95810986e-01     0.00000000e+00    
           4.66084987e-01     4.95810986e-01     0.00000000e+00    
           4.93930012e-01     4.79214013e-01     0.00000000e+00    
           4.78967011e-01     4.79214013e-01     0.00000000e+00    
           5.09284973e-01     4.97658014e-01     0.00000000e+00    
           4.95503992e-01     4.97658014e-01     0.00000000e+00    
           5.33011973e-01     5.01751006e-01     0.00000000e+00    
           5.17829001e-01     5.01751006e-01     0.00000000e+00    
           4.95451003e-01     5.00564992e-01     0.00000000e+00    
           4.80922014e-01     5.00564992e-01     0.00000000e+00    
           5.25367022e-01     4.88312006e-01     0.00000000e+00    
           5.09521008e-01     4.88312006e-01     0.00000000e+00    
           4.65243995e-01     5.34618974e-01     0.00000000e+00    
           4.65243995e-01     4.66010004e-01     0.00000000e+00    
           5.33852994e-01     4.66010004e-01     0.00000000e+00    
           5.33852994e-01     5.34618974e-01     0.00000000e+00    
           5.21338999e-01     5.13502657e-01     0.00000000e+00    
           5.20626605e-01     5.15222490e-01     0.00000000e+00    
           5.19493401e-01     5.16699374e-01     0.00000000e+00    
           5.18016517e-01     5.17832637e-01     0.00000000e+00    
           5.16296625e-01     5.18545032e-01     0.00000000e+00    
           5.14451027e-01     5.18787980e-01     0.00000000e+00    
           5.12605369e-01     5.18545032e-01     0.00000000e+00    
           5.10885477e-01     5.17832637e-01     0.00000000e+00    
           5.09408593e-01     5.16699374e-01     0.00000000e+00    
           5.08275390e-01     5.15222490e-01     0.00000000e+00    
           5.07562995e-01     5.13502657e-01     0.00000000e+00    
           5.07562995e-01     5.09811342e-01     0.00000000e+00    
           5.08275390e-01     5.08091509e-01     0.00000000e+00    
           5.09408593e-01     5.06614625e-01     0.00000000e+00    
           5.10885477e-01     5.05481362e-01     0.00000000e+00    
           5.12605369e-01     5.04768968e-01     0.00000000e+00    
           5.14451027e-01     5.04526019e-01     0.00000000e+00    
           5.16296625e-01     5.04768968e-01     0.00000000e+00    
           5.18016517e-01     5.05481362e-01     0.00000000e+00    
           5.19493401e-01     5.06614625e-01     0.00000000e+00    
           5.20626605e-01     5.08091509e-01     0.00000000e+00    
           5.21338999e-01     5.09811342e-01     0.00000000e+00    
           4.66931671e-01     5.04409373e-01     0.00000000e+00    
           4.68693614e-01     5.04328012e-01     0.00000000e+00    
           4.70421344e-01     5.04682958e-01     0.00000000e+00    
           4.72008497e-01     5.05452335e-01     0.00000000e+00    
           4.73357379e-01     5.06588817e-01     0.00000000e+00    
           4.74384934e-01     5.08022368e-01     0.00000000e+00    
           4.75027919e-01     5.09664834e-01     0.00000000e+00    
           4.75028187e-01     5.13165236e-01     0.00000000e+00    
           4.74385172e-01     5.14807761e-01     0.00000000e+00    
           4.73357558e-01     5.16241372e-01     0.00000000e+00    
           4.72008646e-01     5.17377913e-01     0.00000000e+00    
           4.70421433e-01     5.18147290e-01     0.00000000e+00    
           4.68693614e-01     5.18502235e-01     0.00000000e+00    
           4.66931641e-01     5.18420875e-01     0.00000000e+00    
           5.32303810e-01     5.16964078e-01     0.00000000e+00    
           5.31043947e-01     5.15658796e-01     0.00000000e+00    
           5.30155540e-01     5.14077127e-01     0.00000000e+00    
           5.29696345e-01     5.12322068e-01     0.00000000e+00    
           5.29696345e-01     5.10507941e-01     0.00000000e+00    
           5.30155540e-01     5.08752882e-01     0.00000000e+00    
           5.31043947e-01     5.07171214e-01     0.00000000e+00    
           5.32303810e-01     5.05865932e-01     0.00000000e+00    
           4.68517244e-01     5.32760799e-01     0.00000000e+00    
           4.68509018e-01     5.30844629e-01     0.00000000e+00    
           4.68960851e-01     5.28982460e-01     0.00000000e+00    
           4.69846308e-01     5.27283132e-01     0.00000000e+00    
           4.71113682e-01     5.25845945e-01     0.00000000e+00    
           4.72688884e-01     5.24754822e-01     0.00000000e+00    
           4.74479854e-01     5.24073541e-01     0.00000000e+00    
           4.78284091e-01     5.24073601e-01     0.00000000e+00    
           4.80075032e-01     5.24754822e-01     0.00000000e+00    
           4.81650203e-01     5.25845885e-01     0.00000000e+00    
           4.82917547e-01     5.27283013e-01     0.00000000e+00    
           4.83803004e-01     5.28982282e-01     0.00000000e+00    
           4.84254897e-01     5.30844331e-01     0.00000000e+00    
           4.84246761e-01     5.32760441e-01     0.00000000e+00    
           4.82887864e-01     4.67691004e-01     0.00000000e+00    
           4.81620818e-01     4.69110936e-01     0.00000000e+00    
           4.80051905e-01     4.70188022e-01     0.00000000e+00    
           4.78271484e-01     4.70860153e-01     0.00000000e+00    
           4.76382166e-01     4.71088618e-01     0.00000000e+00    
           4.74492878e-01     4.70860243e-01     0.00000000e+00    
           4.72712427e-01     4.70188200e-01     0.00000000e+00    
           4.71143454e-01     4.69111174e-01     0.00000000e+00    
           4.69876349e-01     4.67691302e-01     0.00000000e+00    
           4.88103986e-01     5.33086061e-01     0.00000000e+00    
           4.87431526e-01     5.31323195e-01     0.00000000e+00    
           4.87231195e-01     5.29447019e-01     0.00000000e+00    
           4.87516224e-01     5.27581930e-01     0.00000000e+00    
           4.88267750e-01     5.25851250e-01     0.00000000e+00    
           4.89436030e-01     5.24369657e-01     0.00000000e+00    
           4.90943670e-01     5.23235261e-01     0.00000000e+00    
           4.92690891e-01     5.22523046e-01     0.00000000e+00    
           4.96432930e-01     5.22523701e-01     0.00000000e+00    
           4.98180002e-01     5.23235798e-01     0.00000000e+00    
           4.99687493e-01     5.24370134e-01     0.00000000e+00    
           5.00855684e-01     5.25851607e-01     0.00000000e+00    
           5.01607120e-01     5.27582109e-01     0.00000000e+00    
           5.01892149e-01     5.29447079e-01     0.00000000e+00    
           5.01691818e-01     5.31323016e-01     0.00000000e+00    
           5.01019418e-01     5.33085763e-01     0.00000000e+00    
           4.98371124e-01     4.67269689e-01     0.00000000e+00    
           4.96539861e-01     4.68064904e-01     0.00000000e+00    
           4.94562000e-01     4.68336672e-01     0.00000000e+00    
           4.92584139e-01     4.68064904e-01     0.00000000e+00    
           4.90752876e-01     4.67269689e-01     0.00000000e+00    
           5.32269001e-01     4.75995690e-01     0.00000000e+00    
           5.31541944e-01     4.77750987e-01     0.00000000e+00    
           5.30385315e-01     4.79258329e-01     0.00000000e+00    
           5.28877974e-01     4.80414927e-01     0.00000000e+00    
[...]
      <PointData>
        <DataArray type="Float32" Name="Displacement" NumberOfComponents="3">
           1.32576431e-04     2.71717704e-06     0.00000000e+00    
           1.27546286e-04    -4.74931630e-06     0.00000000e+00    
          -1.02599906e-05     1.61245907e-07     0.00000000e+00    
          -1.25345005e-05    -1.61174614e-06     0.00000000e+00    
          -5.83676592e-06    -4.34596416e-07     0.00000000e+00    
           1.62465498e-04    -1.61174614e-06     0.00000000e+00    
           1.64740006e-04     1.61245907e-07     0.00000000e+00    
           2.27278415e-05    -2.34631534e-06     0.00000000e+00    
           1.70616713e-05    -2.49655614e-06     0.00000000e+00    
           2.02057818e-05    -2.90590606e-06     0.00000000e+00    
           1.70616713e-05    -2.49655614e-06     0.00000000e+00    
           2.27278415e-05    -2.34631534e-06     0.00000000e+00    
           6.38312486e-05    -8.25660027e-06     0.00000000e+00    
           5.91392054e-05    -4.73501223e-06     0.00000000e+00    
           5.66417148e-05    -6.78348442e-06     0.00000000e+00    
           5.91392054e-05    -4.73501223e-06     0.00000000e+00    
           6.38312486e-05    -8.25660027e-06     0.00000000e+00    
           1.62511555e-04     9.18060596e-06     0.00000000e+00    
           1.54808586e-04     4.85652981e-06     0.00000000e+00    
           1.53862056e-04     1.42705267e-06     0.00000000e+00    
           1.56701033e-04     1.73380852e-06     0.00000000e+00    
           1.47330982e-04     4.49632671e-06     0.00000000e+00    
          -1.82989716e-05     1.73380852e-06     0.00000000e+00    
          -2.11379484e-05     1.42705267e-06     0.00000000e+00    
           3.65851156e-05    -2.95099835e-06     0.00000000e+00    
           3.00865595e-05    -1.48590618e-06     0.00000000e+00    
           1.19670491e-04     3.91223830e-06     0.00000000e+00    
           1.10458219e-04    -3.27650287e-06     0.00000000e+00    
           8.38601336e-05    -1.27171646e-07     0.00000000e+00    
           7.39157185e-05    -1.72765601e-06     0.00000000e+00    
           1.12330617e-05     2.91612878e-06     0.00000000e+00    
           6.14971805e-06     2.65625886e-06     0.00000000e+00    
           1.84881319e-05    -1.39653480e-06     0.00000000e+00    
           1.81149720e-04     2.65625886e-06     0.00000000e+00    
           1.86233068e-04     2.91612878e-06     0.00000000e+00    
           2.04993667e-05     4.54967812e-06     0.00000000e+00    
           1.17625286e-05     2.67861174e-06     0.00000000e+00    
           4.69276893e-05    -2.43979321e-06     0.00000000e+00    
           3.51636627e-05     4.46557721e-07     0.00000000e+00    
           8.02942159e-05     7.85135114e-07     0.00000000e+00    
           7.08980806e-05     7.67956365e-08     0.00000000e+00    
           1.49032261e-04    -2.68500958e-06     0.00000000e+00    
           1.42085308e-04     3.95764982e-06     0.00000000e+00    
           5.57512722e-05    -1.44124783e-06     0.00000000e+00    
           4.44346952e-05    -3.25863107e-06     0.00000000e+00    
           1.26902727e-04     3.96343421e-06     0.00000000e+00    
           1.18355580e-04     1.85302531e-06     0.00000000e+00    
           0.00000000e+00     0.00000000e+00     0.00000000e+00    
           0.00000000e+00     0.00000000e+00     0.00000000e+00    
           1.74999994e-04     0.00000000e+00     0.00000000e+00    
           1.74999994e-04     0.00000000e+00     0.00000000e+00    
           1.31203051e-04     2.61292826e-06     0.00000000e+00    
           1.30083659e-04     2.31368517e-06     0.00000000e+00    
           1.29064676e-04     1.84631676e-06     0.00000000e+00    
           1.28075146e-04     1.15429521e-06     0.00000000e+00    
           1.27159044e-04     1.81146063e-07     0.00000000e+00    
           1.26356492e-04    -9.54930101e-07     0.00000000e+00    
           1.26016690e-04    -2.05724314e-06     0.00000000e+00    
           1.25974620e-04    -3.00426404e-06     0.00000000e+00    
           1.26043029e-04    -3.72688828e-06     0.00000000e+00    
           1.26356972e-04    -4.23091387e-06     0.00000000e+00    
           1.26877887e-04    -4.58522345e-06     0.00000000e+00    
           1.28303102e-04    -4.74353328e-06     0.00000000e+00    
           1.29109540e-04    -4.59430021e-06     0.00000000e+00    
           1.29985594e-04    -4.25885764e-06     0.00000000e+00    
           1.30971544e-04    -3.71245051e-06     0.00000000e+00    
           1.32193119e-04    -2.97719362e-06     0.00000000e+00    
           1.33577589e-04    -2.03111586e-06     0.00000000e+00    
           1.34843431e-04    -9.64901233e-07     0.00000000e+00    
           1.36142597e-04     7.59201839e-08     0.00000000e+00    
           1.37315277e-04     8.34221339e-07     0.00000000e+00    
           1.36299161e-04     1.84577027e-06     0.00000000e+00    
           1.34241607e-04     2.48621973e-06     0.00000000e+00    
          -1.09377279e-05    -1.45305683e-06     0.00000000e+00    
          -9.58258079e-06    -8.91206128e-07     0.00000000e+00    
          -8.74896705e-06    -4.59571254e-07     0.00000000e+00    
          -8.10277379e-06    -2.51177454e-07     0.00000000e+00    
          -7.62360060e-06    -2.89477128e-07     0.00000000e+00    
          -7.03654950e-06    -3.92742635e-07     0.00000000e+00    
          -6.47172646e-06    -4.75709271e-07     0.00000000e+00    
          -5.36575180e-06    -4.10329278e-07     0.00000000e+00    
          -5.41139343e-06    -4.38121447e-07     0.00000000e+00    
          -5.95138090e-06    -4.62615048e-07     0.00000000e+00    
          -6.73402474e-06    -4.21282436e-07     0.00000000e+00    
          -7.53114227e-06    -2.76240712e-07     0.00000000e+00    
          -8.45018258e-06    -5.15628322e-08     0.00000000e+00    
          -9.37467394e-06     3.05728456e-08     0.00000000e+00    
           1.64281228e-04     2.37858856e-07     0.00000000e+00    
           1.64215802e-04     1.74282135e-07     0.00000000e+00    
           1.64020486e-04     1.66062179e-07     0.00000000e+00    
           1.63530392e-04     1.62714144e-07     0.00000000e+00    
           1.62716227e-04     7.17724404e-08     0.00000000e+00    
           1.61552118e-04    -3.68998116e-07     0.00000000e+00    
           1.59990712e-04    -1.31730974e-06     0.00000000e+00    
           1.60937459e-04    -1.73733702e-06     0.00000000e+00    
           1.65593738e-05    -2.66152665e-06     0.00000000e+00    
           1.61194985e-05    -2.88361207e-06     0.00000000e+00    
           1.59468327e-05    -2.98929399e-06     0.00000000e+00    
           1.63034147e-05    -3.01156615e-06     0.00000000e+00    
           1.71021238e-05    -3.04217178e-06     0.00000000e+00    
           1.81254309e-05    -3.07230516e-06     0.00000000e+00    
           1.92305888e-05    -3.06945367e-06     0.00000000e+00    
           2.12124560e-05    -2.70029614e-06     0.00000000e+00    
           2.19169106e-05    -2.54495035e-06     0.00000000e+00    
           2.24001978e-05    -2.41092062e-06     0.00000000e+00    
           2.28409899e-05    -2.30194109e-06     0.00000000e+00    
           2.34359231e-05    -2.33257788e-06     0.00000000e+00    
           2.36516225e-05    -2.40668533e-06     0.00000000e+00    
           2.33772607e-05    -2.42618057e-06     0.00000000e+00    
           2.20250131e-05    -2.26294037e-06     0.00000000e+00    
           2.14093452e-05    -2.15123282e-06     0.00000000e+00    
           2.08003785e-05    -2.07895027e-06     0.00000000e+00    
           2.00837585e-05    -2.00802060e-06     0.00000000e+00    
           1.93299584e-05    -2.13742965e-06     0.00000000e+00    
           1.86396010e-05    -2.25806320e-06     0.00000000e+00    
           1.82372369e-05    -2.31809690e-06     0.00000000e+00    
           1.79337803e-05    -2.42234955e-06     0.00000000e+00    
           1.74947509e-05    -2.44211560e-06     0.00000000e+00    
           5.79179905e-05    -4.25663711e-06     0.00000000e+00    
           5.67925090e-05    -3.87555383e-06     0.00000000e+00    
           5.59922119e-05    -3.66430550e-06     0.00000000e+00    
           5.55183942e-05    -3.66629047e-06     0.00000000e+00    
           5.48707758e-05    -4.18057698e-06     0.00000000e+00    
           5.43588576e-05    -4.85678083e-06     0.00000000e+00    
           5.45264920e-05    -5.48331445e-06     0.00000000e+00    
           5.53674035e-05    -6.12379336e-06     0.00000000e+00    
           5.80744600e-05    -7.42072507e-06     0.00000000e+00    
           5.96060090e-05    -7.93747859e-06     0.00000000e+00    
           6.12464282e-05    -8.32367914e-06     0.00000000e+00    
           6.28568596e-05    -8.61734679e-06     0.00000000e+00    
           6.41064471e-05    -8.90597494e-06     0.00000000e+00    
           6.46905100e-05    -9.01546446e-06     0.00000000e+00    
           6.45992550e-05    -9.00655323e-06     0.00000000e+00    
           6.42294326e-05    -8.65132733e-06     0.00000000e+00    
           6.33396121e-05    -7.77145124e-06     0.00000000e+00    
           6.27617264e-05    -7.21119204e-06     0.00000000e+00    
           6.20799256e-05    -6.56384691e-06     0.00000000e+00    
           6.12612857e-05    -5.92889819e-06     0.00000000e+00    
           6.03334011e-05    -5.31741398e-06     0.00000000e+00    
           1.62921118e-04     9.56619897e-06     0.00000000e+00    
           1.61780001e-04     9.71744430e-06     0.00000000e+00    
           1.59697360e-04     9.45574993e-06     0.00000000e+00    
           1.57467512e-04     9.16031149e-06     0.00000000e+00    
           1.55441274e-04     8.67372819e-06     0.00000000e+00    
           1.53805566e-04     8.04163483e-06     0.00000000e+00    
           1.52269844e-04     7.12183282e-06     0.00000000e+00    
           1.51795612e-04     6.40384587e-06     0.00000000e+00    
           1.52370121e-04     5.56320583e-06     0.00000000e+00    
           1.53206376e-04     5.00312581e-06     0.00000000e+00    
           1.54025081e-04     4.82559790e-06     0.00000000e+00    
           1.55637710e-04     5.02537114e-06     0.00000000e+00    
           1.56440175e-04     5.32477679e-06     0.00000000e+00    
           1.57172923e-04     5.75296417e-06     0.00000000e+00    
           1.57856135e-04     6.28493763e-06     0.00000000e+00    
           1.58537485e-04     6.95421477e-06     0.00000000e+00    
           1.59073985e-04     7.59379463e-06     0.00000000e+00    
           1.59509218e-04     8.05357467e-06     0.00000000e+00    
           1.60016381e-04     8.31918624e-06     0.00000000e+00    
           1.60458163e-04     8.47231877e-06     0.00000000e+00    
           1.60927870e-04     8.58754265e-06     0.00000000e+00    
           1.61515360e-04     8.80463722e-06     0.00000000e+00    
           1.56232665e-04     1.98042108e-06     0.00000000e+00    
           1.55605914e-04     2.26073007e-06     0.00000000e+00    
           1.54948240e-04     2.61410128e-06     0.00000000e+00    
           1.54178371e-04     2.94069218e-06     0.00000000e+00    
           1.53204237e-04     3.39926828e-06     0.00000000e+00    
           1.51966568e-04     3.84679424e-06     0.00000000e+00    
           1.50488471e-04     4.18044783e-06     0.00000000e+00    
           1.48938401e-04     4.44680927e-06     0.00000000e+00    
           1.47632658e-04     4.58693421e-06     0.00000000e+00    
           1.47813305e-04     4.24722748e-06     0.00000000e+00    
           1.48364357e-04     3.88804528e-06     0.00000000e+00    
           1.48844760e-04     3.59743649e-06     0.00000000e+00    
           1.49406667e-04     3.35073764e-06     0.00000000e+00    
           1.50035892e-04     3.08028257e-06     0.00000000e+00    
           1.50919630e-04     2.68835242e-06     0.00000000e+00    
           1.51833810e-04     2.20670336e-06     0.00000000e+00    
           1.52833469e-04     1.74716433e-06     0.00000000e+00    
           1.53513349e-04     1.44479759e-06     0.00000000e+00    
          -2.06605746e-05     1.40205987e-06     0.00000000e+00    
          -1.99922797e-05     1.34982326e-06     0.00000000e+00    
          -1.92271382e-05     1.39477845e-06     0.00000000e+00    
          -1.85602094e-05     1.48791617e-06     0.00000000e+00    
          -1.82065414e-05     1.59546983e-06     0.00000000e+00    
           3.70041635e-05    -2.97226438e-06     0.00000000e+00    
           3.75234486e-05    -2.77554614e-06     0.00000000e+00    
           3.80823440e-05    -2.29990906e-06     0.00000000e+00    
           3.81264581e-05    -1.73449496e-06     0.00000000e+00    
           3.74142801e-05    -1.35985363e-06     0.00000000e+00    
           3.60960476e-05    -1.02029480e-06     0.00000000e+00    
           3.47842979e-05    -1.07110418e-06     0.00000000e+00    
           3.37397869e-05    -1.15886451e-06     0.00000000e+00    
           3.29819741e-05    -1.23813356e-06     0.00000000e+00    
           3.24755529e-05    -1.27178419e-06     0.00000000e+00    
           3.17697013e-05    -1.32546757e-06     0.00000000e+00    
           3.09265160e-05    -1.34923755e-06     0.00000000e+00    
           2.94363108e-05    -1.65393362e-06     0.00000000e+00    
           2.94150195e-05    -1.73210822e-06     0.00000000e+00    
           3.00080374e-05    -1.75455204e-06     0.00000000e+00    
           3.09283132e-05    -1.87542264e-06     0.00000000e+00    
           3.19286009e-05    -1.96777432e-06     0.00000000e+00    
           3.29631439e-05    -1.98718658e-06     0.00000000e+00    
           3.36567355e-05    -1.96082874e-06     0.00000000e+00    
           3.41010127e-05    -1.95891926e-06     0.00000000e+00    
           3.45710396e-05    -2.08102097e-06     0.00000000e+00    
           3.50366718e-05    -2.32155116e-06     0.00000000e+00    
           3.55855482e-05    -2.57265356e-06     0.00000000e+00    
           3.61122948e-05    -2.80278505e-06     0.00000000e+00    
           1.17965297e-04     3.82971621e-06     0.00000000e+00    
           1.16131676e-04     3.55274847e-06     0.00000000e+00    
           1.14523173e-04     2.94169081e-06     0.00000000e+00    
           1.13190872e-04     2.08431925e-06     0.00000000e+00    
           1.11967565e-04     1.05008030e-06     0.00000000e+00    
           1.10989997e-04    -4.33585505e-08     0.00000000e+00    
           1.10189496e-04    -1.10688450e-06     0.00000000e+00    
           1.09619068e-04    -2.07725680e-06     0.00000000e+00    
           1.09279434e-04    -2.81829352e-06     0.00000000e+00    
           1.09426757e-04    -3.19743253e-06     0.00000000e+00    
           1.12232126e-04    -3.01050000e-06     0.00000000e+00    
           1.14158182e-04    -2.64039227e-06     0.00000000e+00    
           1.15975483e-04    -1.96393694e-06     0.00000000e+00    
           1.17549156e-04    -1.05826018e-06     0.00000000e+00    
           1.18816839e-04     9.15563376e-08     0.00000000e+00    
           1.19511002e-04     1.18342359e-06     0.00000000e+00    
           1.19897115e-04     2.13067665e-06     0.00000000e+00    
           1.20310775e-04     2.92828167e-06     0.00000000e+00    
           1.20515142e-04     3.50458345e-06     0.00000000e+00    
           1.20534904e-04     3.85004432e-06     0.00000000e+00    
           8.43537709e-05     2.01598993e-07     0.00000000e+00    
           8.38209453e-05     7.09482748e-08     0.00000000e+00    
           8.25149618e-05    -4.76952593e-08     0.00000000e+00    
           8.09050907e-05    -4.16100846e-07     0.00000000e+00    
           7.97437460e-05    -7.91795344e-07     0.00000000e+00    
           7.91421262e-05    -1.06355651e-06     0.00000000e+00    
           7.86044766e-05    -1.42128033e-06     0.00000000e+00    
           7.80841874e-05    -1.55048326e-06     0.00000000e+00    
           7.73802822e-05    -1.50872370e-06     0.00000000e+00    
           7.65303994e-05    -1.53722988e-06     0.00000000e+00    
           7.53211934e-05    -1.53952851e-06     0.00000000e+00    
           7.31372420e-05    -1.88171430e-06     0.00000000e+00    
           7.37078590e-05    -1.75206480e-06     0.00000000e+00    
           7.50836771e-05    -1.51740687e-06     0.00000000e+00    
           7.63876305e-05    -1.22697281e-06     0.00000000e+00    
           7.75517183e-05    -1.03721152e-06     0.00000000e+00    
           7.85446537e-05    -8.93097990e-07     0.00000000e+00    
           7.94778316e-05    -7.22877473e-07     0.00000000e+00    
           8.03075018e-05    -6.04771287e-07     0.00000000e+00    
           8.11615901e-05    -4.90463378e-07     0.00000000e+00    
           8.20032510e-05    -3.87955140e-07     0.00000000e+00    
           8.28605334e-05    -2.08467725e-07     0.00000000e+00    
           7.25694053e-06     2.29689499e-06     0.00000000e+00    
           8.26855012e-06     1.75000673e-06     0.00000000e+00    
           9.22222716e-06     1.21677442e-06     0.00000000e+00    
           1.01092464e-05     6.65183506e-07     0.00000000e+00    
           1.10143737e-05     1.29641691e-07     0.00000000e+00    
           1.18667340e-05    -3.56180010e-07     0.00000000e+00    
           1.31017478e-05    -8.03382704e-07     0.00000000e+00    
           1.47743058e-05    -1.26378052e-06     0.00000000e+00    
           1.68806801e-05    -1.51473807e-06     0.00000000e+00    
           1.84370783e-05    -1.23290170e-06     0.00000000e+00    
           1.73849003e-05    -1.11188763e-06     0.00000000e+00    
           1.64845096e-05    -9.77051059e-07     0.00000000e+00    
           1.58391431e-05    -7.74915804e-07     0.00000000e+00    
           1.53142955e-05    -4.74916163e-07     0.00000000e+00    
           1.48929112e-05     3.04405354e-08     0.00000000e+00    
           1.42675281e-05     6.83072130e-07     0.00000000e+00    
           1.34481261e-05     1.51004724e-06     0.00000000e+00    
           1.24249345e-05     2.25768940e-06     0.00000000e+00    
           1.84814766e-04     3.43761690e-06     0.00000000e+00    
           1.82955031e-04     3.57065733e-06     0.00000000e+00    
           1.81142590e-04     3.46289085e-06     0.00000000e+00    
           1.80366827e-04     3.00391366e-06     0.00000000e+00    
           2.11027527e-05     4.66551182e-06     0.00000000e+00    
           2.02939682e-05     4.68731787e-06     0.00000000e+00    
           1.85438294e-05     4.66647180e-06     0.00000000e+00    
           1.67072612e-05     4.46360173e-06     0.00000000e+00    
           1.50884844e-05     4.09616860e-06     0.00000000e+00    
           1.37353463e-05     3.59896103e-06     0.00000000e+00    
           1.27374460e-05     3.06406537e-06     0.00000000e+00    
           1.20445229e-05     2.74539821e-06     0.00000000e+00    
           1.14110489e-05     2.61294463e-06     0.00000000e+00    
           1.09945104e-05     2.56076623e-06     0.00000000e+00    
           1.10865194e-05     2.67730002e-06     0.00000000e+00    
           1.27468948e-05     2.71331146e-06     0.00000000e+00    
           1.37361312e-05     2.87747343e-06     0.00000000e+00    
           1.47406490e-05     3.15507350e-06     0.00000000e+00    
           1.56147107e-05     3.52777397e-06     0.00000000e+00    
           1.63010318e-05     3.86331340e-06     0.00000000e+00    
           1.68536244e-05     4.10131361e-06     0.00000000e+00    
           1.73127919e-05     4.19568551e-06     0.00000000e+00    
           1.77317179e-05     4.23882693e-06     0.00000000e+00    
           1.81974465e-05     4.30169985e-06     0.00000000e+00    