<?xml version="1.0"?>
<VTKFile type="UnstructuredGrid" version="0.1">
  <UnstructuredGrid>
    <Piece NumberOfPoints="1034" NumberOfCells="1614">
      <Points>
        <DataArray type="Float32" NumberOfComponents="3">
           5.21582007e-01     5.11657000e-01     0.00000000e+00    
           5.07319987e-01     5.11657000e-01     0.00000000e+00    
           4.65243995e-01     5.17907977e-01     0.00000000e+00    
           4.65243995e-01     5.04921973e-01     0.00000000e+00    
           4.75246996e-01     5.11415005e-01     0.00000000e+00    
           5.33852994e-01     5.04921973e-01     0.00000000e+00    
           5.33852994e-01     5.17907977e-01     0.00000000e+00    
           4.83779997e-01     5.34618974e-01     0.00000000e+00    
           4.68984991e-01     5.34618974e-01     0.00000000e+00    
           4.76381987e-01     5.23841977e-01     0.00000000e+00    
           4.68984991e-01     4.66010004e-01     0.00000000e+00    
           4.83779997e-01     4.66010004e-01     0.00000000e+00    
           4.99920011e-01     5.34618974e-01     0.00000000e+00    
           4.89203990e-01     5.34618974e-01     0.00000000e+00    
           4.94562000e-01     5.22280991e-01     0.00000000e+00    
           4.89203990e-01     4.66010004e-01     0.00000000e+00    
           4.99920011e-01     4.66010004e-01     0.00000000e+00    
           5.32517016e-01     4.74112004e-01     0.00000000e+00    
           5.17961025e-01     4.74112004e-01     0.00000000e+00    
           5.33852994e-01     5.19801974e-01     0.00000000e+00    
           5.33852994e-01     5.29603004e-01     0.00000000e+00    
           5.19536972e-01     5.24702013e-01     0.00000000e+00    
           4.65243995e-01     5.29603004e-01     0.00000000e+00    
           4.65243995e-01     5.19801974e-01     0.00000000e+00    
           4.92487997e-01     5.17117977e-01     0.00000000e+00    
           4.76904988e-01     5.17117977e-01     0.00000000e+00    
           5.17996013e-01     5.27033985e-01     0.00000000e+00    
           5.04473984e-01     5.27033985e-01     0.00000000e+00    
           5.08446991e-01     4.83435005e-01     0.00000000e+00    
           4.94414002e-01     4.83435005e-01     0.00000000e+00    
           4.65243995e-01     4.83101994e-01     0.00000000e+00    
           4.65243995e-01     4.74415004e-01     0.00000000e+00    
           4.78336990e-01     4.78758007e-01     0.00000000e+00    
           5.33852994e-01     4.74415004e-01     0.00000000e+00    
           5.33852994e-01     4.83101994e-01     0.00000000e+00    
           4.80668008e-01     4.95810986e-01     0.00000000e+00    
           4.66084987e-01     4.95810986e-01     0.00000000e+00    
           4.93930012e-01     4.79214013e-01     0.00000000e+00    
           4.78967011e-01     4.79214013e-01     0.00000000e+00    
           5.09284973e-01     4.97658014e-01     0.00000000e+00    
           4.95503992e-01     4.97658014e-01     0.00000000e+00    
           5.33011973e-01     5.01751006e-01     0.00000000e+00    
           5.17829001e-01     5.01751006e-01     0.00000000e+00    
           4.95451003e-01     5.00564992e-01     0.00000000e+00    
           4.80922014e-01     5.00564992e-01     0.00000000e+00    
           5.25367022e-01     4.88312006e-01     0.00000000e+00    
           5.09521008e-01     4.88312006e-01     0.00000000e+00    
           4.65243995e-01     5.34618974e-01     0.00000000e+00    
           4.65243995e-01     4.66010004e-01     0.00000000e+00    
           5.33852994e-01     4.66010004e-01     0.00000000e+00    
           5.33852994e-01     5.34618974e-01     0.00000000e+00    
           5.21338999e-01     5.13502657e-01     0.00000000e+00    
           5.20626605e-01     5.15222490e-01     0.00000000e+00    
           5.19493401e-01     5.16699374e-01     0.00000000e+00    
           5.18016517e-01     5.17832637e-01     0.00000000e+00    
           5.16296625e-01     5.18545032e-01     0.00000000e+00    
           5.14451027e-01     5.18787980e-01     0.00000000e+00    
           5.12605369e-01     5.18545032e-01     0.00000000e+00    
           5.10885477e-01     5.17832637e-01     0.00000000e+00    
           5.09408593e-01     5.16699374e-01     0.00000000e+00    
           5.08275390e-01     5.15222490e-01     0.00000000e+00    
           5.07562995e-01     5.13502657e-01     0.00000000e+00    
           5.07562995e-01     5.09811342e-01     0.00000000e+00    
           5.08275390e-01     5.08091509e-01     0.00000000e+00    
           5.09408593e-01     5.06614625e-01     0.00000000e+00    
           5.10885477e-01     5.05481362e-01     0.00000000e+00    
           5.12605369e-01     5.04768968e-01     0.00000000e+00    
           5.14451027e-01     5.04526019e-01     0.00000000e+00    
           5.16296625e-01     5.04768968e-01     0.00000000e+00    
           5.18016517e-01     5.05481362e-01     0.00000000e+00    
           5.19493401e-01     5.06614625e-01     0.00000000e+00    
           5.20626605e-01     5.08091509e-01     0.00000000e+00    
           5.21338999e-01     5.09811342e-01     0.00000000e+00    
           4.66931671e-01     5.04409373e-01     0.00000000e+00    
           4.68693614e-01     5.04328012e-01     0.00000000e+00    
           4.70421344e-01     5.04682958e-01     0.00000000e+00    
           4.72008497e-01     5.05452335e-01     0.00000000e+00    
           4.73357379e-01     5.06588817e-01     0.00000000e+00    
           4.74384934e-01     5.08022368e-01     0.00000000e+00    
           4.75027919e-01     5.09664834e-01     0.00000000e+00    
           4.75028187e-01     5.13165236e-01     0.00000000e+00    
           4.74385172e-01     5.14807761e-01     0.00000000e+00    
           4.73357558e-01     5.16241372e-01     0.00000000e+00    
           4.72008646e-01     5.17377913e-01     0.00000000e+00    
           4.70421433e-01     5.18147290e-01     0.00000000e+00    
           4.68693614e-01     5.18502235e-01     0.00000000e+00    
           4.66931641e-01     5.18420875e-01     0.00000000e+00    
           5.32303810e-01     5.16964078e-01     0.00000000e+00    
           5.31043947e-01     5.15658796e-01     0.00000000e+00    
           5.30155540e-01     5.14077127e-01     0.00000000e+00    
           5.29696345e-01     5.12322068e-01     0.00000000e+00    
           5.29696345e-01     5.10507941e-01     0.00000000e+00    
           5.30155540e-01     5.08752882e-01     0.00000000e+00    
           5.31043947e-01     5.07171214e-01     0.00000000e+00    
           5.32303810e-01     5.05865932e-01     0.00000000e+00    
           4.68517244e-01     5.32760799e-01     0.00000000e+00    
           4.68509018e-01     5.30844629e-01     0.00000000e+00    
           4.68960851e-01     5.28982460e-01     0.00000000e+00    
           4.69846308e-01     5.27283132e-01     0.00000000e+00    
           4.71113682e-01     5.25845945e-01     0.00000000e+00    
           4.72688884e-01     5.24754822e-01     0.00000000e+00    
           4.74479854e-01     5.24073541e-01     0.00000000e+00    
           4.78284091e-01     5.24073601e-01     0.00000000e+00    
           4.80075032e-01     5.24754822e-01     0.00000000e+00    
           4.81650203e-01     5.25845885e-01     0.00000000e+00    
           4.82917547e-01     5.27283013e-01     0.00000000e+00    
           4.83803004e-01     5.28982282e-01     0.00000000e+00    
           4.84254897e-01     5.30844331e-01     0.00000000e+00    
           4.84246761e-01     5.32760441e-01     0.00000000e+00    
           4.82887864e-01     4.67691004e-01     0.00000000e+00    
           4.81620818e-01     4.69110936e-01     0.00000000e+00    
           4.80051905e-01     4.70188022e-01     0.00000000e+00    
           4.78271484e-01     4.70860153e-01     0.00000000e+00    
           4.76382166e-01     4.71088618e-01     0.00000000e+00    
           4.74492878e-01     4.70860243e-01     0.00000000e+00    
           4.72712427e-01     4.70188200e-01     0.00000000e+00    
           4.71143454e-01     4.69111174e-01     0.00000000e+00    
           4.69876349e-01     4.67691302e-01     0.00000000e+00    
           4.88103986e-01     5.33086061e-01     0.00000000e+00    
           4.87431526e-01     5.31323195e-01     0.00000000e+00    
           4.87231195e-01     5.29447019e-01     0.00000000e+00    
           4.87516224e-01     5.27581930e-01     0.00000000e+00    
           4.88267750e-01     5.25851250e-01     0.00000000e+00    
           4.89436030e-01     5.24369657e-01     0.00000000e+00    
           4.90943670e-01     5.23235261e-01     0.00000000e+00    
           4.92690891e-01     5.22523046e-01     0.00000000e+00    
           4.96432930e-01     5.22523701e-01     0.00000000e+00    
           4.98180002e-01     5.23235798e-01     0.00000000e+00    
           4.99687493e-01     5.24370134e-01     0.00000000e+00    
           5.00855684e-01     5.25851607e-01     0.00000000e+00    
           5.01607120e-01     5.27582109e-01     0.00000000e+00    
           5.01892149e-01     5.29447079e-01     0.00000000e+00    
           5.01691818e-01     5.31323016e-01     0.00000000e+00    
           5.01019418e-01     5.33085763e-01     0.00000000e+00    
           4.98371124e-01     4.67269689e-01     0.00000000e+00    
           4.96539861e-01     4.68064904e-01     0.00000000e+00    
           4.94562000e-01     4.68336672e-01     0.00000000e+00    
           4.92584139e-01     4.68064904e-01     0.00000000e+00    
           4.90752876e-01     4.67269689e-01     0.00000000e+00    
           5.32269001e-01     4.75995690e-01     0.00000000e+00    
           5.31541944e-01     4.77750987e-01     0.00000000e+00    
           5.30385315e-01     4.79258329e-01     0.00000000e+00    
           5.28877974e-01     4.80414927e-01     0.00000000e+00    
[...]
      <PointData>
        <DataArray type="Float32" Name="Displacement" NumberOfComponents="3">
           6.41985098e-04     4.41430939e-06     0.00000000e+00    
           6.24638924e-04    -1.25260767e-05     0.00000000e+00    
          -3.51765557e-05     2.98607438e-06     0.00000000e+00    
          -2.55134219e-05    -2.23645725e-06     0.00000000e+00    
          -1.40240236e-05     1.13826027e-05     0.00000000e+00    
           8.24486604e-04    -2.23645725e-06     0.00000000e+00    
           8.14823434e-04     2.98607438e-06     0.00000000e+00    
           1.07564556e-04    -2.06483628e-06     0.00000000e+00    
           8.86882553e-05    -1.40602860e-05     0.00000000e+00    
           1.08139022e-04    -1.07287597e-05     0.00000000e+00    
           8.86882553e-05    -1.40602860e-05     0.00000000e+00    
           1.07564556e-04    -2.06483628e-06     0.00000000e+00    
           2.97495397e-04    -2.99791955e-05     0.00000000e+00    
           2.81777233e-04    -1.11088139e-05     0.00000000e+00    
           2.66180927e-04    -2.29372363e-05     0.00000000e+00    
           2.81777233e-04    -1.11088139e-05     0.00000000e+00    
           2.97495397e-04    -2.99791955e-05     0.00000000e+00    
           7.57239759e-04     4.10905923e-05     0.00000000e+00    
           7.36844609e-04     1.17969685e-05     0.00000000e+00    
           7.64028344e-04     5.88702187e-06     0.00000000e+00    
           7.68717320e-04     7.72249223e-06     0.00000000e+00    
           7.44531339e-04     1.14994255e-05     0.00000000e+00    
          -8.12826620e-05     7.72249223e-06     0.00000000e+00    
          -8.59716383e-05     5.88702187e-06     0.00000000e+00    
           1.82454896e-04    -5.30681291e-07     0.00000000e+00    
           1.62348282e-04    -6.13298243e-06     0.00000000e+00    
           5.87060524e-04     1.47592427e-05     0.00000000e+00    
           5.65005583e-04    -9.85139559e-06     0.00000000e+00    
           4.21377830e-04    -1.81643850e-06     0.00000000e+00    
           3.98981036e-04     3.18407501e-06     0.00000000e+00    
           4.52713903e-05     5.23891458e-07     0.00000000e+00    
           4.32880115e-05    -1.59342221e-06     0.00000000e+00    
           6.53955649e-05    -6.32002468e-07     0.00000000e+00    
           8.93288001e-04    -1.59342221e-06     0.00000000e+00    
           8.95271369e-04     5.23891458e-07     0.00000000e+00    
           7.31090040e-05     2.45817300e-05     0.00000000e+00    
           5.06282267e-05     1.07637525e-05     0.00000000e+00    
           2.13792518e-04    -3.23532868e-06     0.00000000e+00    
           1.89439161e-04     7.17357125e-06     0.00000000e+00    
           4.36824979e-04    -1.30343096e-06     0.00000000e+00    
           4.15632356e-04     1.77503716e-05     0.00000000e+00    
           7.30699103e-04    -2.61293690e-06     0.00000000e+00    
           7.09507614e-04     1.84908440e-05     0.00000000e+00    
           2.46285024e-04     2.52765176e-07     0.00000000e+00    
           2.21866343e-04    -1.76462272e-05     0.00000000e+00    
           6.33427000e-04     2.12667856e-05     0.00000000e+00    
           6.10884454e-04     5.82800976e-06     0.00000000e+00    
           0.00000000e+00     0.00000000e+00     0.00000000e+00    
           0.00000000e+00     0.00000000e+00     0.00000000e+00    
           8.50000011e-04     0.00000000e+00     0.00000000e+00    
           8.50000011e-04     0.00000000e+00     0.00000000e+00    
           6.39012898e-04     4.89080639e-06     0.00000000e+00    
           6.36338955e-04     4.78799575e-06     0.00000000e+00    
           6.33597083e-04     4.17030833e-06     0.00000000e+00    
           6.30564347e-04     2.85456167e-06     0.00000000e+00    
           6.27461064e-04     5.31487672e-07     0.00000000e+00    
           6.24372216e-04    -2.51778101e-06     0.00000000e+00    
           6.22680469e-04    -5.57492740e-06     0.00000000e+00    
           6.21931569e-04    -8.06571461e-06     0.00000000e+00    
           6.21505082e-04    -9.86771011e-06     0.00000000e+00    
           6.21919404e-04    -1.10344217e-05     0.00000000e+00    
           6.22998981e-04    -1.19658362e-05     0.00000000e+00    
           6.26692025e-04    -1.26961550e-05     0.00000000e+00    
           6.29022717e-04    -1.26191298e-05     0.00000000e+00    
           6.31585775e-04    -1.20683681e-05     0.00000000e+00    
           6.34425553e-04    -1.10209539e-05     0.00000000e+00    
           6.37803169e-04    -9.48855450e-06     0.00000000e+00    
           6.41789171e-04    -7.46836622e-06     0.00000000e+00    
           6.45347987e-04    -4.79229584e-06     0.00000000e+00    
           6.47876877e-04    -2.27861460e-06     0.00000000e+00    
           6.48340967e-04    -6.22475056e-07     0.00000000e+00    
           6.47623325e-04     1.45771207e-06     0.00000000e+00    
           6.45120977e-04     3.15796365e-06     0.00000000e+00    
          -2.12813648e-05    -8.29431940e-07     0.00000000e+00    
          -1.73572425e-05     2.37697441e-06     0.00000000e+00    
          -1.51330069e-05     5.48749404e-06     0.00000000e+00    
          -1.38871637e-05     7.87939007e-06     0.00000000e+00    
          -1.34099937e-05     9.31300201e-06     0.00000000e+00    
          -1.31555062e-05     1.02434324e-05     0.00000000e+00    
          -1.33818248e-05     1.08670620e-05     0.00000000e+00    
          -1.54084337e-05     1.13102506e-05     0.00000000e+00    
          -1.75134683e-05     1.05942954e-05     0.00000000e+00    
          -2.01695766e-05     9.54949883e-06     0.00000000e+00    
          -2.31455488e-05     8.47187493e-06     0.00000000e+00    
          -2.62469293e-05     7.60282865e-06     0.00000000e+00    
          -2.96780145e-05     6.76308855e-06     0.00000000e+00    
          -3.28612841e-05     4.89193599e-06     0.00000000e+00    
           8.14327039e-04     1.37365146e-06     0.00000000e+00    
           8.15185485e-04    -3.50606086e-07     0.00000000e+00    
           8.16235144e-04    -1.72902890e-06     0.00000000e+00    
           8.16968502e-04    -2.69026623e-06     0.00000000e+00    
           8.17374210e-04    -3.37814049e-06     0.00000000e+00    
           8.17885739e-04    -4.10111898e-06     0.00000000e+00    
           8.19465029e-04    -4.37836252e-06     0.00000000e+00    
           8.21858412e-04    -3.72547584e-06     0.00000000e+00    
           8.89401999e-05    -1.50940632e-05     0.00000000e+00    
           8.97857972e-05    -1.59141146e-05     0.00000000e+00    
           9.14345655e-05    -1.58863713e-05     0.00000000e+00    
           9.39589736e-05    -1.52328748e-05     0.00000000e+00    
           9.70824258e-05    -1.43713887e-05     0.00000000e+00    
           1.00779274e-04    -1.35183973e-05     0.00000000e+00    
           1.04736821e-04    -1.25458910e-05     0.00000000e+00    
           1.11294263e-04    -8.53268193e-06     0.00000000e+00    
           1.12931244e-04    -6.51834989e-06     0.00000000e+00    
           1.13553338e-04    -4.72535066e-06     0.00000000e+00    
           1.13545684e-04    -3.07869436e-06     0.00000000e+00    
           1.13540154e-04    -2.22629524e-06     0.00000000e+00    
           1.12359368e-04    -2.03263176e-06     0.00000000e+00    
           1.10382010e-04    -2.04041135e-06     0.00000000e+00    
           1.04548613e-04    -2.23480515e-06     0.00000000e+00    
           1.01733138e-04    -2.44084936e-06     0.00000000e+00    
           9.89262480e-05    -3.08931476e-06     0.00000000e+00    
           9.57969751e-05    -3.97552003e-06     0.00000000e+00    
           9.28324807e-05    -6.08750543e-06     0.00000000e+00    
           9.04394474e-05    -8.51982168e-06     0.00000000e+00    
           8.94565092e-05    -1.03718412e-05     0.00000000e+00    
           8.91135714e-05    -1.20392715e-05     0.00000000e+00    
           8.86787893e-05    -1.31325733e-05     0.00000000e+00    
           2.77329760e-04    -9.21399169e-06     0.00000000e+00    
           2.73057463e-04    -7.80953451e-06     0.00000000e+00    
           2.69175041e-04    -7.35383855e-06     0.00000000e+00    
           2.66133808e-04    -7.94646530e-06     0.00000000e+00    
           2.63336260e-04    -1.03948241e-05     0.00000000e+00    
           2.61742767e-04    -1.30289627e-05     0.00000000e+00    
           2.61526642e-04    -1.57504874e-05     0.00000000e+00    
           2.62827816e-04    -1.91901308e-05     0.00000000e+00    
           2.70553806e-04    -2.62203212e-05     0.00000000e+00    
           2.75203492e-04    -2.87044168e-05     0.00000000e+00    
           2.79887434e-04    -3.07795490e-05     0.00000000e+00    
           2.84179026e-04    -3.26226655e-05     0.00000000e+00    
           2.88258452e-04    -3.43333486e-05     0.00000000e+00    
           2.91983946e-04    -3.48646754e-05     0.00000000e+00    
           2.94848636e-04    -3.44629443e-05     0.00000000e+00    
           2.96752434e-04    -3.26408444e-05     0.00000000e+00    
           2.97183433e-04    -2.66285479e-05     0.00000000e+00    
           2.95716454e-04    -2.29292309e-05     0.00000000e+00    
           2.93337565e-04    -1.92474272e-05     0.00000000e+00    
           2.90090247e-04    -1.61133758e-05     0.00000000e+00    
           2.86303344e-04    -1.34562952e-05     0.00000000e+00    
           7.53321568e-04     4.14915812e-05     0.00000000e+00    
           7.48586957e-04     4.05756291e-05     0.00000000e+00    
           7.43688724e-04     3.79960693e-05     0.00000000e+00    
           7.38071220e-04     3.58133329e-05     0.00000000e+00    
           7.32443528e-04     3.29016912e-05     0.00000000e+00    
           7.28048792e-04     2.92980130e-05     0.00000000e+00    
           7.24656566e-04     2.44318289e-05     0.00000000e+00    
           7.24342070e-04     2.07601770e-05     0.00000000e+00    
           7.26193830e-04     1.70717485e-05     0.00000000e+00    
           7.29285122e-04     1.40448301e-05     0.00000000e+00    
           7.32923218e-04     1.23560612e-05     0.00000000e+00    
           7.41137424e-04     1.20568893e-05     0.00000000e+00    
           7.45452999e-04     1.31702236e-05     0.00000000e+00    
           7.49548664e-04     1.51371587e-05     0.00000000e+00    
           7.53290369e-04     1.79767503e-05     0.00000000e+00    
           7.56640278e-04     2.16756598e-05     0.00000000e+00    
           7.59124290e-04     2.56164694e-05     0.00000000e+00    
           7.60713127e-04     2.92050554e-05     0.00000000e+00    
           7.61762378e-04     3.22556516e-05     0.00000000e+00    
           7.61863019e-04     3.49049624e-05     0.00000000e+00    
           7.61155388e-04     3.72883005e-05     0.00000000e+00    
           7.59752060e-04     3.94808449e-05     0.00000000e+00    
           7.67200778e-04     8.25060306e-06     0.00000000e+00    
           7.65043194e-04     8.80018797e-06     0.00000000e+00    
           7.62575655e-04     9.33227693e-06     0.00000000e+00    
           7.59917137e-04     9.54218012e-06     0.00000000e+00    
           7.56973110e-04     1.00190618e-05     0.00000000e+00    
           7.53783504e-04     1.04624987e-05     0.00000000e+00    
           7.50560721e-04     1.08106578e-05     0.00000000e+00    
           7.47703132e-04     1.12300277e-05     0.00000000e+00    
           7.45569356e-04     1.16220590e-05     0.00000000e+00    
           7.44495832e-04     1.08674485e-05     0.00000000e+00    
           7.45350437e-04     9.60006309e-06     0.00000000e+00    
           7.46669190e-04     8.41930705e-06     0.00000000e+00    
           7.48597842e-04     7.63172829e-06     0.00000000e+00    
           7.51002866e-04     6.97433961e-06     0.00000000e+00    
           7.54511857e-04     6.15816953e-06     0.00000000e+00    
           7.57867820e-04     5.54687722e-06     0.00000000e+00    
           7.61075993e-04     5.28096871e-06     0.00000000e+00    
           7.63027056e-04     5.26184340e-06     0.00000000e+00    
          -8.48784766e-05     6.36007508e-06     0.00000000e+00    
          -8.34573220e-05     6.62808725e-06     0.00000000e+00    
          -8.20108762e-05     6.94068331e-06     0.00000000e+00    
          -8.10326455e-05     7.26238795e-06     0.00000000e+00    
          -8.07424876e-05     7.48291359e-06     0.00000000e+00    
           1.82063348e-04    -4.06540948e-07     0.00000000e+00    
           1.81835057e-04     1.21039648e-07     0.00000000e+00    
           1.81255600e-04     9.79665970e-07     0.00000000e+00    
           1.79885814e-04     1.58953276e-06     0.00000000e+00    
           1.77564943e-04     1.87064870e-06     0.00000000e+00    
           1.73744527e-04     2.09096652e-06     0.00000000e+00    
           1.69708073e-04     7.83860571e-07     0.00000000e+00    
           1.66779195e-04    -8.35732067e-07     0.00000000e+00    
           1.65055084e-04    -2.30632418e-06     0.00000000e+00    
           1.64372788e-04    -3.66012864e-06     0.00000000e+00    
           1.63616583e-04    -4.89666536e-06     0.00000000e+00    
           1.62793120e-04    -5.57908470e-06     0.00000000e+00    
           1.62633631e-04    -6.38112033e-06     0.00000000e+00    
           1.63801102e-04    -6.22083371e-06     0.00000000e+00    
           1.65842823e-04    -5.74026444e-06     0.00000000e+00    
           1.68692277e-04    -5.61786919e-06     0.00000000e+00    
           1.71970139e-04    -5.20808999e-06     0.00000000e+00    
           1.75480469e-04    -4.23577103e-06     0.00000000e+00    
           1.77835318e-04    -2.91384845e-06     0.00000000e+00    
           1.79304770e-04    -1.67866290e-06     0.00000000e+00    
           1.80527437e-04    -9.13692531e-07     0.00000000e+00    
           1.81418247e-04    -6.87556792e-07     0.00000000e+00    
           1.82161340e-04    -5.84760471e-07     0.00000000e+00    
           1.82516669e-04    -5.69812528e-07     0.00000000e+00    
           5.82801003e-04     1.43969410e-05     0.00000000e+00    
           5.77830302e-04     1.36285544e-05     0.00000000e+00    
           5.72891498e-04     1.18702355e-05     0.00000000e+00    
           5.68520976e-04     9.35488788e-06     0.00000000e+00    
           5.64453541e-04     6.05576543e-06     0.00000000e+00    
           5.61175286e-04     2.24395490e-06     0.00000000e+00    
           5.58979402e-04    -1.79383778e-06     0.00000000e+00    
           5.58385684e-04    -5.45894181e-06     0.00000000e+00    
           5.59194246e-04    -8.19497836e-06     0.00000000e+00    
           5.61516033e-04    -9.37859477e-06     0.00000000e+00    
           5.69346303e-04    -9.20533512e-06     0.00000000e+00    
           5.74110309e-04    -8.15521707e-06     0.00000000e+00    
           5.79261512e-04    -6.23373307e-06     0.00000000e+00    
           5.84280526e-04    -3.63408685e-06     0.00000000e+00    
           5.88720024e-04     2.34933765e-07     0.00000000e+00    
           5.91301417e-04     4.14099804e-06     0.00000000e+00    
           5.92524768e-04     7.66177345e-06     0.00000000e+00    
           5.93240838e-04     1.07591750e-05     0.00000000e+00    
           5.92527329e-04     1.30176268e-05     0.00000000e+00    
           5.90490468e-04     1.43185562e-05     0.00000000e+00    
           4.22385929e-04    -1.17544573e-06     0.00000000e+00    
           4.22609446e-04    -8.45602074e-07     0.00000000e+00    
           4.21780336e-04    -2.70035656e-07     0.00000000e+00    
           4.19288437e-04     2.07493741e-07     0.00000000e+00    
           4.17055213e-04     8.55001190e-07     0.00000000e+00    
           4.15448303e-04     1.98522480e-06     0.00000000e+00    
           4.13198577e-04     2.61811647e-06     0.00000000e+00    
           4.10272041e-04     3.53977111e-06     0.00000000e+00    
           4.07031883e-04     3.98724342e-06     0.00000000e+00    
           4.04062390e-04     3.69768873e-06     0.00000000e+00    
           4.01141879e-04     3.45515673e-06     0.00000000e+00    
           3.97540629e-04     2.84410885e-06     0.00000000e+00    
           3.97115597e-04     2.42137821e-06     0.00000000e+00    
           3.97622731e-04     2.12008899e-06     0.00000000e+00    
           3.98982316e-04     1.29385182e-06     0.00000000e+00    
           4.01394616e-04    -1.12684390e-07     0.00000000e+00    
           4.04507911e-04    -1.50803328e-06     0.00000000e+00    
           4.07663319e-04    -2.21917321e-06     0.00000000e+00    
           4.10846493e-04    -2.59091917e-06     0.00000000e+00    
           4.14024194e-04    -2.50650442e-06     0.00000000e+00    
           4.16817900e-04    -2.34619324e-06     0.00000000e+00    
           4.19267686e-04    -2.01472290e-06     0.00000000e+00    
           4.55979934e-05    -1.67566679e-06     0.00000000e+00    
           4.85631826e-05    -2.24874225e-06     0.00000000e+00    
           5.17532426e-05    -2.39898600e-06     0.00000000e+00    
           5.48425633e-05    -2.13884982e-06     0.00000000e+00    
           5.72739009e-05    -1.69023656e-06     0.00000000e+00    
           5.89940028e-05    -1.18579487e-06     0.00000000e+00    
           6.09937160e-05    -6.86460055e-07     0.00000000e+00    
           6.31765070e-05    -6.32567890e-07     0.00000000e+00    
           6.47401102e-05    -8.18101910e-07     0.00000000e+00    
           6.50374204e-05    -3.93146962e-07     0.00000000e+00    
           6.36108598e-05    -4.08771342e-07     0.00000000e+00    
           6.12432923e-05    -3.99409316e-07     0.00000000e+00    
           5.88046860e-05    -3.64486027e-07     0.00000000e+00    
           5.63318245e-05    -4.77467836e-07     0.00000000e+00    
           5.43274218e-05    -3.87672685e-07     0.00000000e+00    
           5.21060610e-05    -1.38565312e-07     0.00000000e+00    
           4.98158006e-05     3.15671002e-07     0.00000000e+00    
           4.74608278e-05     5.34375090e-07     0.00000000e+00    
           8.93321587e-04     1.98915103e-07     0.00000000e+00    
           8.91830307e-04    -5.63332037e-07     0.00000000e+00    
           8.91301839e-04    -1.02540173e-06     0.00000000e+00    
           8.91891774e-04    -1.65084816e-06     0.00000000e+00    
           7.13974878e-05     2.47370572e-05     0.00000000e+00    
           6.86395506e-05     2.41873186e-05     0.00000000e+00    
           6.51899900e-05     2.30759997e-05     0.00000000e+00    
           6.09846975e-05     2.19634239e-05     0.00000000e+00    
           5.65483278e-05     2.04098760e-05     0.00000000e+00    
           5.28218625e-05     1.80275001e-05     0.00000000e+00    
           5.00861970e-05     1.53249803e-05     0.00000000e+00    
           4.85643395e-05     1.33013555e-05     0.00000000e+00    
           4.75028646e-05     1.21354469e-05     0.00000000e+00    
           4.74322042e-05     1.13650985e-05     0.00000000e+00    
           4.85617529e-05     1.11523195e-05     0.00000000e+00    
           5.35572872e-05     1.06354246e-05     0.00000000e+00    
           5.68344913e-05     1.10209285e-05     0.00000000e+00    
           6.02918881e-05     1.19182314e-05     0.00000000e+00    
           6.34949683e-05     1.33537669e-05     0.00000000e+00    
           6.62294697e-05     1.49290127e-05     0.00000000e+00    
           6.85339473e-05     1.64492612e-05     0.00000000e+00    
           7.05144921e-05     1.76650574e-05     0.00000000e+00    
           7.18965821e-05     1.90213959e-05     0.00000000e+00    
           7.28685991e-05     2.06284531e-05     0.00000000e+00    