<?xml version="1.0"?>
<VTKFile type="UnstructuredGrid" version="0.1">
  <UnstructuredGrid>
    <Piece NumberOfPoints="1034" NumberOfCells="1614">
      <Points>
        <DataArray type="Float32" NumberOfComponents="3">
           5.21582007e-01     5.11657000e-01     0.00000000e+00    
           5.07319987e-01     5.11657000e-01     0.00000000e+00    
           4.65243995e-01     5.17907977e-01     0.00000000e+00    
           4.65243995e-01     5.04921973e-01     0.00000000e+00    
           4.75246996e-01     5.11415005e-01     0.00000000e+00    
           5.33852994e-01     5.04921973e-01     0.00000000e+00    
           5.33852994e-01     5.17907977e-01     0.00000000e+00    
           4.83779997e-01     5.34618974e-01     0.00000000e+00    
           4.68984991e-01     5.34618974e-01     0.00000000e+00    
           4.76381987e-01     5.23841977e-01     0.00000000e+00    
           4.68984991e-01     4.66010004e-01     0.00000000e+00    
           4.83779997e-01     4.66010004e-01     0.00000000e+00    
           4.99920011e-01     5.34618974e-01     0.00000000e+00    
           4.89203990e-01     5.34618974e-01     0.00000000e+00    
           4.94562000e-01     5.22280991e-01     0.00000000e+00    
           4.89203990e-01     4.66010004e-01     0.00000000e+00    
           4.99920011e-01     4.66010004e-01     0.00000000e+00    
           5.32517016e-01     4.74112004e-01     0.00000000e+00    
           5.17961025e-01     4.74112004e-01     0.00000000e+00    
           5.33852994e-01     5.19801974e-01     0.00000000e+00    
           5.33852994e-01     5.29603004e-01     0.00000000e+00    
           5.19536972e-01     5.24702013e-01     0.00000000e+00    
           4.65243995e-01     5.29603004e-01     0.00000000e+00    
           4.65243995e-01     5.19801974e-01     0.00000000e+00    
           4.92487997e-01     5.17117977e-01     0.00000000e+00    
           4.76904988e-01     5.17117977e-01     0.00000000e+00    
           5.17996013e-01     5.27033985e-01     0.00000000e+00    
           5.04473984e-01     5.27033985e-01     0.00000000e+00    
           5.08446991e-01     4.83435005e-01     0.00000000e+00    
           4.94414002e-01     4.83435005e-01     0.00000000e+00    
           4.65243995e-01     4.83101994e-01     0.00000000e+00    
           4.65243995e-01     4.74415004e-01     0.00000000e+00    
           4.78336990e-01     4.78758007e-01     0.00000000e+00    
           5.33852994e-01     4.74415004e-01     0.00000000e+00    
           5.33852994e-01     4.83101994e-01     0.00000000e+00    
           4.80668008e-01     4.95810986e-01     0.00000000e+00    
           4.66084987e-01     4.95810986e-01     0.00000000e+00    
           4.93930012e-01     4.79214013e-01     0.00000000e+00    
           4.78967011e-01     4.79214013e-01     0.00000000e+00    
           5.09284973e-01     4.97658014e-01     0.00000000e+00    
           4.95503992e-01     4.97658014e-01     0.00000000e+00    
           5.33011973e-01     5.01751006e-01     0.00000000e+00    
           5.17829001e-01     5.01751006e-01     0.00000000e+00    
           4.95451003e-01     5.00564992e-01     0.00000000e+00    
           4.80922014e-01     5.00564992e-01     0.00000000e+00    
           5.25367022e-01     4.88312006e-01     0.00000000e+00    
           5.09521008e-01     4.88312006e-01     0.00000000e+00    
           4.65243995e-01     5.34618974e-01     0.00000000e+00    
           4.65243995e-01     4.66010004e-01     0.00000000e+00    
           5.33852994e-01     4.66010004e-01     0.00000000e+00    
           5.33852994e-01     5.34618974e-01     0.00000000e+00    
           5.21338999e-01     5.13502657e-01     0.00000000e+00    
           5.20626605e-01     5.15222490e-01     0.00000000e+00    
           5.19493401e-01     5.16699374e-01     0.00000000e+00    
           5.18016517e-01     5.17832637e-01     0.00000000e+00    
           5.16296625e-01     5.18545032e-01     0.00000000e+00    
           5.14451027e-01     5.18787980e-01     0.00000000e+00    
           5.12605369e-01     5.18545032e-01     0.00000000e+00    
           5.10885477e-01     5.17832637e-01     0.00000000e+00    
           5.09408593e-01     5.16699374e-01     0.00000000e+00    
           5.08275390e-01     5.15222490e-01     0.00000000e+00    
           5.07562995e-01     5.13502657e-01     0.00000000e+00    
           5.07562995e-01     5.09811342e-01     0.00000000e+00    
           5.08275390e-01     5.08091509e-01     0.00000000e+00    
           5.09408593e-01     5.06614625e-01     0.00000000e+00    
           5.10885477e-01     5.05481362e-01     0.00000000e+00    
           5.12605369e-01     5.04768968e-01     0.00000000e+00    
           5.14451027e-01     5.04526019e-01     0.00000000e+00    
           5.16296625e-01     5.04768968e-01     0.00000000e+00    
           5.18016517e-01     5.05481362e-01     0.00000000e+00    
           5.19493401e-01     5.06614625e-01     0.00000000e+00    
           5.20626605e-01     5.08091509e-01     0.00000000e+00    
           5.21338999e-01     5.09811342e-01     0.00000000e+00    
           4.66931671e-01     5.04409373e-01     0.00000000e+00    
           4.68693614e-01     5.04328012e-01     0.00000000e+00    
           4.70421344e-01     5.04682958e-01     0.00000000e+00    
           4.72008497e-01     5.05452335e-01     0.00000000e+00    
           4.73357379e-01     5.06588817e-01     0.00000000e+00    
           4.74384934e-01     5.08022368e-01     0.00000000e+00    
           4.75027919e-01     5.09664834e-01     0.00000000e+00    
           4.75028187e-01     5.13165236e-01     0.00000000e+00    
           4.74385172e-01     5.14807761e-01     0.00000000e+00    
           4.73357558e-01     5.16241372e-01     0.00000000e+00    
           4.72008646e-01     5.17377913e-01     0.00000000e+00    
           4.70421433e-01     5.18147290e-01     0.00000000e+00    
           4.68693614e-01     5.18502235e-01     0.00000000e+00    
           4.66931641e-01     5.18420875e-01     0.00000000e+00    
           5.32303810e-01     5.16964078e-01     0.00000000e+00    
           5.31043947e-01     5.15658796e-01     0.00000000e+00    
           5.30155540e-01     5.14077127e-01     0.00000000e+00    
           5.29696345e-01     5.12322068e-01     0.00000000e+00    
           5.29696345e-01     5.10507941e-01     0.00000000e+00    
           5.30155540e-01     5.08752882e-01     0.00000000e+00    
           5.31043947e-01     5.07171214e-01     0.00000000e+00    
           5.32303810e-01     5.05865932e-01     0.00000000e+00    
           4.68517244e-01     5.32760799e-01     0.00000000e+00    
           4.68509018e-01     5.30844629e-01     0.00000000e+00    
           4.68960851e-01     5.28982460e-01     0.00000000e+00    
           4.69846308e-01     5.27283132e-01     0.00000000e+00    
           4.71113682e-01     5.25845945e-01     0.00000000e+00    
           4.72688884e-01     5.24754822e-01     0.00000000e+00    
           4.74479854e-01     5.24073541e-01     0.00000000e+00    
           4.78284091e-01     5.24073601e-01     0.00000000e+00    
           4.80075032e-01     5.24754822e-01     0.00000000e+00    
           4.81650203e-01     5.25845885e-01     0.00000000e+00    
           4.82917547e-01     5.27283013e-01     0.00000000e+00    
           4.83803004e-01     5.28982282e-01     0.00000000e+00    
           4.84254897e-01     5.30844331e-01     0.00000000e+00    
           4.84246761e-01     5.32760441e-01     0.00000000e+00    
           4.82887864e-01     4.67691004e-01     0.00000000e+00    
           4.81620818e-01     4.69110936e-01     0.00000000e+00    
           4.80051905e-01     4.70188022e-01     0.00000000e+00    
           4.78271484e-01     4.70860153e-01     0.00000000e+00    
           4.76382166e-01     4.71088618e-01     0.00000000e+00    
           4.74492878e-01     4.70860243e-01     0.00000000e+00    
           4.72712427e-01     4.70188200e-01     0.00000000e+00    
           4.71143454e-01     4.69111174e-01     0.00000000e+00    
           4.69876349e-01     4.67691302e-01     0.00000000e+00    
           4.88103986e-01     5.33086061e-01     0.00000000e+00    
           4.87431526e-01     5.31323195e-01     0.00000000e+00    
           4.87231195e-01     5.29447019e-01     0.00000000e+00    
           4.87516224e-01     5.27581930e-01     0.00000000e+00    
           4.88267750e-01     5.25851250e-01     0.00000000e+00    
           4.89436030e-01     5.24369657e-01     0.00000000e+00    
           4.90943670e-01     5.23235261e-01     0.00000000e+00    
           4.92690891e-01     5.22523046e-01     0.00000000e+00    
           4.96432930e-01     5.22523701e-01     0.00000000e+00    
           4.98180002e-01     5.23235798e-01     0.00000000e+00    
           4.99687493e-01     5.24370134e-01     0.00000000e+00    
           5.00855684e-01     5.25851607e-01     0.00000000e+00    
           5.01607120e-01     5.27582109e-01     0.00000000e+00    
           5.01892149e-01     5.29447079e-01     0.00000000e+00    
           5.01691818e-01     5.31323016e-01     0.00000000e+00    
           5.01019418e-01     5.33085763e-01     0.00000000e+00    
           4.98371124e-01     4.67269689e-01     0.00000000e+00    
           4.96539861e-01     4.68064904e-01     0.00000000e+00    
           4.94562000e-01     4.68336672e-01     0.00000000e+00    
           4.92584139e-01     4.68064904e-01     0.00000000e+00    
           4.90752876e-01     4.67269689e-01     0.00000000e+00    
           5.32269001e-01     4.75995690e-01     0.00000000e+00    
           5.31541944e-01     4.77750987e-01     0.00000000e+00    
           5.30385315e-01     4.79258329e-01     0.00000000e+00    
           5.28877974e-01     4.80414927e-01     0.00000000e+00    
[...]
      <PointData>
        <DataArray type="Float32" Name="Displacement" NumberOfComponents="3">
           3.41211155e-04     4.10247185e-06     0.00000000e+00    
           3.30116367e-04    -1.10458896e-05     0.00000000e+00    
          -2.30172755e-05     8.34816205e-07     0.00000000e+00    
          -2.32987477e-05    -3.02245348e-06     0.00000000e+00    
          -1.15261337e-05     2.34893105e-06     0.00000000e+00    
           4.26701241e-04    -3.02245348e-06     0.00000000e+00    
           4.26982733e-04     8.34816205e-07     0.00000000e+00    
           5.83110632e-05    -4.31940998e-06     0.00000000e+00    
           4.58807735e-05    -7.09830556e-06     0.00000000e+00    
           5.47261880e-05    -6.98768417e-06     0.00000000e+00    
           4.58807735e-05    -7.09830556e-06     0.00000000e+00    
           5.83110632e-05    -4.31940998e-06     0.00000000e+00    
           1.63401681e-04    -2.01760395e-05     0.00000000e+00    
           1.53125264e-04    -1.05629415e-05     0.00000000e+00    
           1.45646278e-04    -1.63144450e-05     0.00000000e+00    
           1.53125264e-04    -1.05629415e-05     0.00000000e+00    
           1.63401681e-04    -2.01760395e-05     0.00000000e+00    
           4.11395566e-04     2.43802933e-05     0.00000000e+00    
           3.95755545e-04     1.09958855e-05     0.00000000e+00    
           3.98596167e-04     3.57413046e-06     0.00000000e+00    
           4.04027902e-04     4.47307366e-06     0.00000000e+00    
           3.84785206e-04     9.79779543e-06     0.00000000e+00    
          -4.59720941e-05     4.47307366e-06     0.00000000e+00    
          -5.14038329e-05     3.57413046e-06     0.00000000e+00    
           9.53616691e-05    -5.05997514e-06     0.00000000e+00    
           8.15626045e-05    -3.22684764e-06     0.00000000e+00    
           3.08778632e-04     9.16412318e-06     0.00000000e+00    
           2.90299446e-04    -8.30750650e-06     0.00000000e+00    
           2.16430839e-04    -1.51751692e-07     0.00000000e+00    
           1.97192829e-04    -2.96758526e-06     0.00000000e+00    
           2.79949672e-05     4.48507399e-06     0.00000000e+00    
           1.96563960e-05     3.60780109e-06     0.00000000e+00    
           4.20446668e-05    -3.16518549e-06     0.00000000e+00    
           4.69656399e-04     3.60780109e-06     0.00000000e+00    
           4.77994967e-04     4.48507399e-06     0.00000000e+00    
           4.82467294e-05     1.23707487e-05     0.00000000e+00    
           3.07756563e-05     6.52028439e-06     0.00000000e+00    
           1.18214921e-04    -5.09766915e-06     0.00000000e+00    
           9.64949504e-05     1.81127461e-06     0.00000000e+00    
           2.13676685e-04     8.30224678e-07     0.00000000e+00    
           1.96237932e-04     4.12647159e-06     0.00000000e+00    
           3.85379710e-04    -3.87146065e-06     0.00000000e+00    
           3.70635884e-04     9.60199122e-06     0.00000000e+00    
           1.35741066e-04    -3.62313608e-06     0.00000000e+00    
           1.14648086e-04    -9.04674016e-06     0.00000000e+00    
           3.26995127e-04     1.20871455e-05     0.00000000e+00    
           3.09612369e-04     3.77899437e-06     0.00000000e+00    
           0.00000000e+00     0.00000000e+00     0.00000000e+00    
           0.00000000e+00     0.00000000e+00     0.00000000e+00    
           4.49999992e-04     0.00000000e+00     0.00000000e+00    
           4.49999992e-04     0.00000000e+00     0.00000000e+00    
           3.38494487e-04     4.12257805e-06     0.00000000e+00    
           3.36187601e-04     3.68937026e-06     0.00000000e+00    
           3.34012060e-04     2.86249065e-06     0.00000000e+00    
           3.31828342e-04     1.52112773e-06     0.00000000e+00    
           3.29764269e-04    -4.66791107e-07     0.00000000e+00    
           3.27901536e-04    -2.85239844e-06     0.00000000e+00    
           3.27036774e-04    -5.22099754e-06     0.00000000e+00    
           3.26850655e-04    -7.26345070e-06     0.00000000e+00    
           3.26945854e-04    -8.83245684e-06     0.00000000e+00    
           3.27592803e-04    -9.90155513e-06     0.00000000e+00    
           3.28684808e-04    -1.06676944e-05     0.00000000e+00    
           3.31764983e-04    -1.10643341e-05     0.00000000e+00    
           3.33547243e-04    -1.07907445e-05     0.00000000e+00    
           3.35463614e-04    -1.01156029e-05     0.00000000e+00    
           3.37554200e-04    -9.01147087e-06     0.00000000e+00    
           3.40051251e-04    -7.53480617e-06     0.00000000e+00    
           3.42900050e-04    -5.69999020e-06     0.00000000e+00    
           3.45522043e-04    -3.51117001e-06     0.00000000e+00    
           3.47939116e-04    -1.43328919e-06     0.00000000e+00    
           3.48851143e-04    -5.91094178e-08     0.00000000e+00    
           3.47787049e-04     1.87470539e-06     0.00000000e+00    
           3.44367436e-04     3.34767924e-06     0.00000000e+00    
          -1.99883107e-05    -2.41927705e-06     0.00000000e+00    
          -1.71284482e-05    -7.85558086e-07     0.00000000e+00    
          -1.54525223e-05     6.57941200e-07     0.00000000e+00    
          -1.43192838e-05     1.61041021e-06     0.00000000e+00    
          -1.36519375e-05     1.98110683e-06     0.00000000e+00    
          -1.28735282e-05     2.10982057e-06     0.00000000e+00    
          -1.22258989e-05     2.16235480e-06     0.00000000e+00    
          -1.12146472e-05     2.34695540e-06     0.00000000e+00    
          -1.18213202e-05     2.10331586e-06     0.00000000e+00    
          -1.32816003e-05     1.79440985e-06     0.00000000e+00    
          -1.51619024e-05     1.56575425e-06     0.00000000e+00    
          -1.70613621e-05     1.52216842e-06     0.00000000e+00    
          -1.91899653e-05     1.59277408e-06     0.00000000e+00    
          -2.12570267e-05     1.18468199e-06     0.00000000e+00    
           4.26256243e-04     5.07765776e-07     0.00000000e+00    
           4.26392216e-04    -4.87735683e-08     0.00000000e+00    
           4.26436018e-04    -4.78948607e-07     0.00000000e+00    
           4.26028710e-04    -7.95693097e-07     0.00000000e+00    
           4.25112259e-04    -1.17036723e-06     0.00000000e+00    
           4.23715886e-04    -2.05991842e-06     0.00000000e+00    
           4.22816258e-04    -3.24832945e-06     0.00000000e+00    
           4.24199650e-04    -3.57995373e-06     0.00000000e+00    
           4.52160748e-05    -7.56079771e-06     0.00000000e+00    
           4.47436178e-05    -8.06605021e-06     0.00000000e+00    
           4.48252067e-05    -8.20955484e-06     0.00000000e+00    
           4.58921932e-05    -8.08967707e-06     0.00000000e+00    
           4.77563553e-05    -7.94037442e-06     0.00000000e+00    
           5.00534697e-05    -7.80983009e-06     0.00000000e+00    
           5.25345095e-05    -7.62477930e-06     0.00000000e+00    
           5.69046460e-05    -6.17993328e-06     0.00000000e+00    
           5.82852845e-05    -5.50113646e-06     0.00000000e+00    
           5.91220742e-05    -4.92688378e-06     0.00000000e+00    
           5.97488834e-05    -4.42575492e-06     0.00000000e+00    
           6.06187168e-05    -4.30222599e-06     0.00000000e+00    
           6.06997746e-05    -4.38747566e-06     0.00000000e+00    
           5.98694132e-05    -4.43342060e-06     0.00000000e+00    
           5.66583949e-05    -4.22211588e-06     0.00000000e+00    
           5.51655612e-05    -4.07274183e-06     0.00000000e+00    
           5.36615298e-05    -4.07816333e-06     0.00000000e+00    
           5.19060486e-05    -4.14359420e-06     0.00000000e+00    
           5.01284303e-05    -4.81600682e-06     0.00000000e+00    
           4.85757628e-05    -5.56265377e-06     0.00000000e+00    
           4.77604954e-05    -6.05024024e-06     0.00000000e+00    
           4.72340544e-05    -6.55453869e-06     0.00000000e+00    
           4.65039120e-05    -6.82200334e-06     0.00000000e+00    
           1.50337000e-04    -9.40778136e-06     0.00000000e+00    
           1.47699480e-04    -8.50721608e-06     0.00000000e+00    
           1.45634942e-04    -8.07715423e-06     0.00000000e+00    
           1.44219026e-04    -8.21369031e-06     0.00000000e+00    
           1.42583769e-04    -9.54585994e-06     0.00000000e+00    
           1.41432261e-04    -1.11646832e-05     0.00000000e+00    
           1.41591387e-04    -1.27061157e-05     0.00000000e+00    
           1.43062192e-04    -1.44435735e-05     0.00000000e+00    
           1.48730367e-04    -1.80399220e-05     0.00000000e+00    
           1.52048786e-04    -1.93845390e-05     0.00000000e+00    
           1.55551257e-04    -2.04351873e-05     0.00000000e+00    
           1.58946379e-04    -2.12977211e-05     0.00000000e+00    
           1.61691103e-04    -2.21587870e-05     0.00000000e+00    
           1.63453980e-04    -2.24851829e-05     0.00000000e+00    
           1.63994089e-04    -2.23835050e-05     0.00000000e+00    
           1.63822100e-04    -2.13950916e-05     0.00000000e+00    
           1.62630211e-04    -1.86650577e-05     0.00000000e+00    
           1.61474250e-04    -1.69598479e-05     0.00000000e+00    
           1.59954681e-04    -1.51452487e-05     0.00000000e+00    
           1.58043709e-04    -1.34884876e-05     0.00000000e+00    
           1.55858303e-04    -1.19712113e-05     0.00000000e+00    
           4.10455366e-04     2.49688946e-05     0.00000000e+00    
           4.07857908e-04     2.48537945e-05     0.00000000e+00    
           4.04160004e-04     2.37898039e-05     0.00000000e+00    
           3.99659883e-04     2.29231609e-05     0.00000000e+00    
           3.95466021e-04     2.15631280e-05     0.00000000e+00    
           3.92138318e-04     1.98069774e-05     0.00000000e+00    
           3.89257446e-04     1.72789514e-05     0.00000000e+00    
           3.88582906e-04     1.54173104e-05     0.00000000e+00    
           3.89771245e-04     1.33596704e-05     0.00000000e+00    
           3.91664333e-04     1.18127055e-05     0.00000000e+00    
           3.93699738e-04     1.11159907e-05     0.00000000e+00    
           3.97948723e-04     1.12801454e-05     0.00000000e+00    
           4.00101970e-04     1.19632132e-05     0.00000000e+00    
           4.02095786e-04     1.30431126e-05     0.00000000e+00    
           4.03922691e-04     1.44773858e-05     0.00000000e+00    
           4.05628933e-04     1.62816359e-05     0.00000000e+00    
           4.06941777e-04     1.80830339e-05     0.00000000e+00    
           4.07936895e-04     1.95679513e-05     0.00000000e+00    
           4.08916181e-04     2.06995064e-05     0.00000000e+00    
           4.09575790e-04     2.16058870e-05     0.00000000e+00    
           4.10075765e-04     2.23991065e-05     0.00000000e+00    
           4.10581502e-04     2.33173305e-05     0.00000000e+00    
           4.03053185e-04     4.99487533e-06     0.00000000e+00    
           4.01722675e-04     5.60294529e-06     0.00000000e+00    
           4.00269782e-04     6.33947820e-06     0.00000000e+00    
           3.98578151e-04     6.95734616e-06     0.00000000e+00    
           3.96482617e-04     7.79678794e-06     0.00000000e+00    
           3.93926835e-04     8.58108706e-06     0.00000000e+00    
           3.90994945e-04     9.14449447e-06     0.00000000e+00    
           3.87988199e-04     9.64285755e-06     0.00000000e+00    
           3.85530002e-04     9.94122183e-06     0.00000000e+00    
           3.85492836e-04     9.24753840e-06     0.00000000e+00    
           3.86501197e-04     8.38294727e-06     0.00000000e+00    
           3.87458043e-04     7.64391370e-06     0.00000000e+00    
           3.88660905e-04     7.04932700e-06     0.00000000e+00    
           3.90093599e-04     6.45344289e-06     0.00000000e+00    
           3.92163813e-04     5.63937056e-06     0.00000000e+00    
           3.94243689e-04     4.75094930e-06     0.00000000e+00    
           3.96394520e-04     3.97719350e-06     0.00000000e+00    
           3.97820782e-04     3.49168249e-06     0.00000000e+00    
          -5.04402196e-05     3.64205744e-06     0.00000000e+00    
          -4.91283390e-05     3.62862738e-06     0.00000000e+00    
          -4.76574860e-05     3.76379626e-06     0.00000000e+00    
          -4.64017467e-05     3.98027441e-06     0.00000000e+00    
          -4.57626047e-05     4.19382422e-06     0.00000000e+00    
           9.60293619e-05    -5.03828915e-06     0.00000000e+00    
           9.68713721e-05    -4.57559281e-06     0.00000000e+00    
           9.76575611e-05    -3.60285526e-06     0.00000000e+00    
           9.74865688e-05    -2.55519922e-06     0.00000000e+00    
           9.59941099e-05    -1.84720363e-06     0.00000000e+00    
           9.32396870e-05    -1.16654405e-06     0.00000000e+00    
           9.04121698e-05    -1.43830141e-06     0.00000000e+00    
           8.82082604e-05    -1.86582088e-06     0.00000000e+00    
           8.66668197e-05    -2.23004713e-06     0.00000000e+00    
           8.57141422e-05    -2.51364895e-06     0.00000000e+00    
           8.44729584e-05    -2.80763220e-06     0.00000000e+00    
           8.29920464e-05    -2.93698645e-06     0.00000000e+00    
           8.05476229e-05    -3.52430970e-06     0.00000000e+00    
           8.06663229e-05    -3.61656384e-06     0.00000000e+00    
           8.18977860e-05    -3.60891613e-06     0.00000000e+00    
           8.37951375e-05    -3.86058719e-06     0.00000000e+00    
           8.58961721e-05    -4.03657623e-06     0.00000000e+00    
           8.81386659e-05    -3.97620624e-06     0.00000000e+00    
           8.96656420e-05    -3.76650746e-06     0.00000000e+00    
           9.06683999e-05    -3.60453487e-06     0.00000000e+00    
           9.16589779e-05    -3.69772920e-06     0.00000000e+00    
           9.25780187e-05    -4.06564550e-06     0.00000000e+00    
           9.36084616e-05    -4.46807053e-06     0.00000000e+00    
           9.45591091e-05    -4.84178872e-06     0.00000000e+00    
           3.05080088e-04     8.93790821e-06     0.00000000e+00    
           3.01023072e-04     8.28919019e-06     0.00000000e+00    
           2.97394843e-04     6.85970099e-06     0.00000000e+00    
           2.94363970e-04     4.84541533e-06     0.00000000e+00    
           2.91639531e-04     2.39924543e-06     0.00000000e+00    
           2.89498188e-04    -2.48153270e-07     0.00000000e+00    
           2.87903444e-04    -2.91594438e-06     0.00000000e+00    
           2.87025206e-04    -5.35544814e-06     0.00000000e+00    
           2.86826049e-04    -7.20189200e-06     0.00000000e+00    
           2.87789793e-04    -8.09405265e-06     0.00000000e+00    
           2.94070953e-04    -7.71989744e-06     0.00000000e+00    
           2.98209779e-04    -6.88723412e-06     0.00000000e+00    
           3.02209373e-04    -5.34902529e-06     0.00000000e+00    
           3.05747497e-04    -3.29643262e-06     0.00000000e+00    
           3.08653776e-04    -5.73858188e-07     0.00000000e+00    
           3.10250703e-04     2.09125665e-06     0.00000000e+00    
           3.11022915e-04     4.47362663e-06     0.00000000e+00    
           3.11646814e-04     6.54375435e-06     0.00000000e+00    
           3.11654061e-04     8.06079606e-06     0.00000000e+00    
           3.11061624e-04     8.96448728e-06     0.00000000e+00    
           2.17064793e-04     4.13426847e-07     0.00000000e+00    
           2.16265544e-04     2.07982040e-07     0.00000000e+00    
           2.14080690e-04     6.65242652e-08     0.00000000e+00    
           2.11078310e-04    -4.91700234e-07     0.00000000e+00    
           2.08818878e-04    -1.05325989e-06     0.00000000e+00    
           2.07555640e-04    -1.35190521e-06     0.00000000e+00    
           2.06286655e-04    -1.88517879e-06     0.00000000e+00    
           2.04943135e-04    -2.05706351e-06     0.00000000e+00    
           2.03319622e-04    -2.08662755e-06     0.00000000e+00    
           2.01592629e-04    -2.37234030e-06     0.00000000e+00    
           1.99364280e-04    -2.58639739e-06     0.00000000e+00    
           1.96276407e-04    -3.10709720e-06     0.00000000e+00    
           1.96965178e-04    -2.92208233e-06     0.00000000e+00    
           1.99014175e-04    -2.55742998e-06     0.00000000e+00    
           2.01351664e-04    -2.19383082e-06     0.00000000e+00    
           2.03654432e-04    -2.08468828e-06     0.00000000e+00    
           2.05815799e-04    -2.00690238e-06     0.00000000e+00    
           2.07830235e-04    -1.71456782e-06     0.00000000e+00    
           2.09639606e-04    -1.42662532e-06     0.00000000e+00    
           2.11425096e-04    -1.07259098e-06     0.00000000e+00    
           2.13094565e-04    -7.61760248e-07     0.00000000e+00    
           2.14707150e-04    -3.34022701e-07     0.00000000e+00    
           2.16026183e-05     2.97255997e-06     0.00000000e+00    
           2.36753858e-05     1.87585806e-06     0.00000000e+00    
           2.57436350e-05     9.36125900e-07     0.00000000e+00    
           2.77314703e-05     9.24442176e-08     0.00000000e+00    
           2.96049948e-05    -6.81968970e-07     0.00000000e+00    
           3.12789780e-05    -1.38097778e-06     0.00000000e+00    
           3.35699224e-05    -1.99890633e-06     0.00000000e+00    
           3.65545711e-05    -2.69625525e-06     0.00000000e+00    
           3.99064702e-05    -3.17754279e-06     0.00000000e+00    
           4.24598074e-05    -2.86512409e-06     0.00000000e+00    
           4.10093307e-05    -2.57188049e-06     0.00000000e+00    
           3.93030423e-05    -2.21922255e-06     0.00000000e+00    
           3.79175835e-05    -1.72336854e-06     0.00000000e+00    
           3.66497989e-05    -1.13552937e-06     0.00000000e+00    
           3.55842130e-05    -2.35960442e-07     0.00000000e+00    
           3.41431551e-05     8.84516680e-07     0.00000000e+00    
           3.23877466e-05     2.27547275e-06     0.00000000e+00    
           3.03090092e-05     3.48297522e-06     0.00000000e+00    
           4.75381355e-04     5.18190836e-06     0.00000000e+00    
           4.72194050e-04     5.09955726e-06     0.00000000e+00    
           4.69718070e-04     4.81938605e-06     0.00000000e+00    
           4.68894432e-04     4.03226477e-06     0.00000000e+00    
           4.84677294e-05     1.25679426e-05     0.00000000e+00    
           4.67599020e-05     1.24195531e-05     0.00000000e+00    
           4.35972288e-05     1.21213097e-05     0.00000000e+00    
           4.00111894e-05     1.16049632e-05     0.00000000e+00    
           3.67002576e-05     1.07472606e-05     0.00000000e+00    
           3.39393737e-05     9.48231445e-06     0.00000000e+00    
           3.19301071e-05     8.08709410e-06     0.00000000e+00    
           3.06499678e-05     7.16416616e-06     0.00000000e+00    
           2.95539012e-05     6.72194892e-06     0.00000000e+00    
           2.89602340e-05     6.49473668e-06     0.00000000e+00    
           2.93598387e-05     6.62832008e-06     0.00000000e+00    
           3.28185379e-05     6.51201526e-06     0.00000000e+00    
           3.49289112e-05     6.80682388e-06     0.00000000e+00    
           3.70912749e-05     7.37716528e-06     0.00000000e+00    
           3.90268397e-05     8.18839453e-06     0.00000000e+00    
           4.06222716e-05     8.97179871e-06     0.00000000e+00    
           4.19483804e-05     9.62888498e-06     0.00000000e+00    
           4.30805267e-05     1.00351335e-05     0.00000000e+00    
           4.40093172e-05     1.04243873e-05     0.00000000e+00    
           4.49003528e-05     1.09105886e-05     0.00000000e+00    