<?xml version="1.0"?>
<VTKFile type="UnstructuredGrid" version="0.1">
  <UnstructuredGrid>
    <Piece NumberOfPoints="1034" NumberOfCells="1614">
      <Points>
        <DataArray type="Float32" NumberOfComponents="3">
           5.21582007e-01     5.11657000e-01     0.00000000e+00    
           5.07319987e-01     5.11657000e-01     0.00000000e+00    
           4.65243995e-01     5.17907977e-01     0.00000000e+00    
           4.65243995e-01     5.04921973e-01     0.00000000e+00    
           4.75246996e-01     5.11415005e-01     0.00000000e+00    
           5.33852994e-01     5.04921973e-01     0.00000000e+00    
           5.33852994e-01     5.17907977e-01     0.00000000e+00    
           4.83779997e-01     5.34618974e-01     0.00000000e+00    
           4.68984991e-01     5.34618974e-01     0.00000000e+00    
           4.76381987e-01     5.23841977e-01     0.00000000e+00    
           4.68984991e-01     4.66010004e-01     0.00000000e+00    
           4.83779997e-01     4.66010004e-01     0.00000000e+00    
           4.99920011e-01     5.34618974e-01     0.00000000e+00    
           4.89203990e-01     5.34618974e-01     0.00000000e+00    
           4.94562000e-01     5.22280991e-01     0.00000000e+00    
           4.89203990e-01     4.66010004e-01     0.00000000e+00    
           4.99920011e-01     4.66010004e-01     0.00000000e+00    
           5.32517016e-01     4.74112004e-01     0.00000000e+00    
           5.17961025e-01     4.74112004e-01     0.00000000e+00    
           5.33852994e-01     5.19801974e-01     0.00000000e+00    
           5.33852994e-01     5.29603004e-01     0.00000000e+00    
           5.19536972e-01     5.24702013e-01     0.00000000e+00    
           4.65243995e-01     5.29603004e-01     0.00000000e+00    
           4.65243995e-01     5.19801974e-01     0.00000000e+00    
           4.92487997e-01     5.17117977e-01     0.00000000e+00    
           4.76904988e-01     5.17117977e-01     0.00000000e+00    
           5.17996013e-01     5.27033985e-01     0.00000000e+00    
           5.04473984e-01     5.27033985e-01     0.00000000e+00    
           5.08446991e-01     4.83435005e-01     0.00000000e+00    
           4.94414002e-01     4.83435005e-01     0.00000000e+00    
           4.65243995e-01     4.83101994e-01     0.00000000e+00    
           4.65243995e-01     4.74415004e-01     0.00000000e+00    
           4.78336990e-01     4.78758007e-01     0.00000000e+00    
           5.33852994e-01     4.74415004e-01     0.00000000e+00    
           5.33852994e-01     4.83101994e-01     0.00000000e+00    
           4.80668008e-01     4.95810986e-01     0.00000000e+00    
           4.66084987e-01     4.95810986e-01     0.00000000e+00    
           4.93930012e-01     4.79214013e-01     0.00000000e+00    
           4.78967011e-01     4.79214013e-01     0.00000000e+00    
           5.09284973e-01     4.97658014e-01     0.00000000e+00    
           4.95503992e-01     4.97658014e-01     0.00000000e+00    
           5.33011973e-01     5.01751006e-01     0.00000000e+00    
           5.17829001e-01     5.01751006e-01     0.00000000e+00    
           4.95451003e-01     5.00564992e-01     0.00000000e+00    
           4.80922014e-01     5.00564992e-01     0.00000000e+00    
           5.25367022e-01     4.88312006e-01     0.00000000e+00    
           5.09521008e-01     4.88312006e-01     0.00000000e+00    
           4.65243995e-01     5.34618974e-01     0.00000000e+00    
           4.65243995e-01     4.66010004e-01     0.00000000e+00    
           5.33852994e-01     4.66010004e-01     0.00000000e+00    
           5.33852994e-01     5.34618974e-01     0.00000000e+00    
           5.21338999e-01     5.13502657e-01     0.00000000e+00    
           5.20626605e-01     5.15222490e-01     0.00000000e+00    
           5.19493401e-01     5.16699374e-01     0.00000000e+00    
           5.18016517e-01     5.17832637e-01     0.00000000e+00    
           5.16296625e-01     5.18545032e-01     0.00000000e+00    
           5.14451027e-01     5.18787980e-01     0.00000000e+00    
           5.12605369e-01     5.18545032e-01     0.00000000e+00    
           5.10885477e-01     5.17832637e-01     0.00000000e+00    
           5.09408593e-01     5.16699374e-01     0.00000000e+00    
           5.08275390e-01     5.15222490e-01     0.00000000e+00    
           5.07562995e-01     5.13502657e-01     0.00000000e+00    
           5.07562995e-01     5.09811342e-01     0.00000000e+00    
           5.08275390e-01     5.08091509e-01     0.00000000e+00    
           5.09408593e-01     5.06614625e-01     0.00000000e+00    
           5.10885477e-01     5.05481362e-01     0.00000000e+00    
           5.12605369e-01     5.04768968e-01     0.00000000e+00    
           5.14451027e-01     5.04526019e-01     0.00000000e+00    
           5.16296625e-01     5.04768968e-01     0.00000000e+00    
           5.18016517e-01     5.05481362e-01     0.00000000e+00    
           5.19493401e-01     5.06614625e-01     0.00000000e+00    
           5.20626605e-01     5.08091509e-01     0.00000000e+00    
           5.21338999e-01     5.09811342e-01     0.00000000e+00    
           4.66931671e-01     5.04409373e-01     0.00000000e+00    
           4.68693614e-01     5.04328012e-01     0.00000000e+00    
           4.70421344e-01     5.04682958e-01     0.00000000e+00    
           4.72008497e-01     5.05452335e-01     0.00000000e+00    
           4.73357379e-01     5.06588817e-01     0.00000000e+00    
           4.74384934e-01     5.08022368e-01     0.00000000e+00    
           4.75027919e-01     5.09664834e-01     0.00000000e+00    
           4.75028187e-01     5.13165236e-01     0.00000000e+00    
           4.74385172e-01     5.14807761e-01     0.00000000e+00    
           4.73357558e-01     5.16241372e-01     0.00000000e+00    
           4.72008646e-01     5.17377913e-01     0.00000000e+00    
           4.70421433e-01     5.18147290e-01     0.00000000e+00    
           4.68693614e-01     5.18502235e-01     0.00000000e+00    
           4.66931641e-01     5.18420875e-01     0.00000000e+00    
           5.32303810e-01     5.16964078e-01     0.00000000e+00    
           5.31043947e-01     5.15658796e-01     0.00000000e+00    
           5.30155540e-01     5.14077127e-01     0.00000000e+00    
           5.29696345e-01     5.12322068e-01     0.00000000e+00    
           5.29696345e-01     5.10507941e-01     0.00000000e+00    
           5.30155540e-01     5.08752882e-01     0.00000000e+00    
           5.31043947e-01     5.07171214e-01     0.00000000e+00    
           5.32303810e-01     5.05865932e-01     0.00000000e+00    
           4.68517244e-01     5.32760799e-01     0.00000000e+00    
           4.68509018e-01     5.30844629e-01     0.00000000e+00    
           4.68960851e-01     5.28982460e-01     0.00000000e+00    
           4.69846308e-01     5.27283132e-01     0.00000000e+00    
           4.71113682e-01     5.25845945e-01     0.00000000e+00    
           4.72688884e-01     5.24754822e-01     0.00000000e+00    
           4.74479854e-01     5.24073541e-01     0.00000000e+00    
           4.78284091e-01     5.24073601e-01     0.00000000e+00    
           4.80075032e-01     5.24754822e-01     0.00000000e+00    
           4.81650203e-01     5.25845885e-01     0.00000000e+00    
           4.82917547e-01     5.27283013e-01     0.00000000e+00    
           4.83803004e-01     5.28982282e-01     0.00000000e+00    
           4.84254897e-01     5.30844331e-01     0.00000000e+00    
           4.84246761e-01     5.32760441e-01     0.00000000e+00    
           4.82887864e-01     4.67691004e-01     0.00000000e+00    
           4.81620818e-01     4.69110936e-01     0.00000000e+00    
           4.80051905e-01     4.70188022e-01     0.00000000e+00    
           4.78271484e-01     4.70860153e-01     0.00000000e+00    
           4.76382166e-01     4.71088618e-01     0.00000000e+00    
           4.74492878e-01     4.70860243e-01     0.00000000e+00    
           4.72712427e-01     4.70188200e-01     0.00000000e+00    
           4.71143454e-01     4.69111174e-01     0.00000000e+00    
           4.69876349e-01     4.67691302e-01     0.00000000e+00    
           4.88103986e-01     5.33086061e-01     0.00000000e+00    
           4.87431526e-01     5.31323195e-01     0.00000000e+00    
           4.87231195e-01     5.29447019e-01     0.00000000e+00    
           4.87516224e-01     5.27581930e-01     0.00000000e+00    
           4.88267750e-01     5.25851250e-01     0.00000000e+00    
           4.89436030e-01     5.24369657e-01     0.00000000e+00    
           4.90943670e-01     5.23235261e-01     0.00000000e+00    
           4.92690891e-01     5.22523046e-01     0.00000000e+00    
           4.96432930e-01     5.22523701e-01     0.00000000e+00    
           4.98180002e-01     5.23235798e-01     0.00000000e+00    
           4.99687493e-01     5.24370134e-01     0.00000000e+00    
           5.00855684e-01     5.25851607e-01     0.00000000e+00    
           5.01607120e-01     5.27582109e-01     0.00000000e+00    
           5.01892149e-01     5.29447079e-01     0.00000000e+00    
           5.01691818e-01     5.31323016e-01     0.00000000e+00    
           5.01019418e-01     5.33085763e-01     0.00000000e+00    
           4.98371124e-01     4.67269689e-01     0.00000000e+00    
           4.96539861e-01     4.68064904e-01     0.00000000e+00    
           4.94562000e-01     4.68336672e-01     0.00000000e+00    
           4.92584139e-01     4.68064904e-01     0.00000000e+00    
           4.90752876e-01     4.67269689e-01     0.00000000e+00    
           5.32269001e-01     4.75995690e-01     0.00000000e+00    
           5.31541944e-01     4.77750987e-01     0.00000000e+00    
           5.30385315e-01     4.79258329e-01     0.00000000e+00    
           5.28877974e-01     4.80414927e-01     0.00000000e+00    
[...]
      <PointData>
        <DataArray type="Float32" Name="Displacement" NumberOfComponents="3">
           7.55090616e-04     3.74696509e-04     0.00000000e+00    
           7.53571745e-04     5.17507549e-04     0.00000000e+00    
           8.33109545e-04     4.09683707e-04     0.00000000e+00    
           6.90761779e-04     3.97420663e-04     0.00000000e+00    
           7.63018033e-04     3.16619204e-04     0.00000000e+00    
           6.90761779e-04     3.97420663e-04     0.00000000e+00    
           8.33109545e-04     4.09683707e-04     0.00000000e+00    
           1.08846196e-03     4.91645304e-04     0.00000000e+00    
           1.09003077e-03     6.43007108e-04     0.00000000e+00    
           9.62857041e-04     5.58123458e-04     0.00000000e+00    
          -9.96920699e-06     9.30070964e-05     0.00000000e+00    
          -1.15380908e-05    -5.83547080e-05     0.00000000e+00    
           1.04266184e-03     4.96951630e-04     0.00000000e+00    
           1.04367512e-03     5.43910428e-04     0.00000000e+00    
           9.70094174e-04     5.07342222e-04     0.00000000e+00    
          -5.63248504e-05    -6.08958499e-06     0.00000000e+00    
          -5.73381913e-05    -5.30483921e-05     0.00000000e+00    
           2.07302830e-04     3.48275207e-05     0.00000000e+00    
           2.04000185e-04     2.02891373e-04     0.00000000e+00    
           9.10774979e-04     4.49617452e-04     0.00000000e+00    
           1.01330469e-03     4.60701296e-04     0.00000000e+00    
           9.65047977e-04     5.79208136e-04     0.00000000e+00    
           1.01330469e-03     4.60701296e-04     0.00000000e+00    
           9.10774979e-04     4.49617452e-04     0.00000000e+00    
           8.45288683e-04     3.64518579e-04     0.00000000e+00    
           8.40809720e-04     5.16830478e-04     0.00000000e+00    
           9.92763555e-04     5.20133937e-04     0.00000000e+00    
           9.96609568e-04     5.78555802e-04     0.00000000e+00    
           3.56349628e-04     1.90434599e-04     0.00000000e+00    
           3.49105801e-04     2.44316005e-04     0.00000000e+00    
           3.02621338e-04     1.93644955e-04     0.00000000e+00    
           2.25654949e-04     1.86633595e-04     0.00000000e+00    
           2.68124044e-04     9.67085871e-05     0.00000000e+00    
           2.25654949e-04     1.86633595e-04     0.00000000e+00    
           3.02621338e-04     1.93644955e-04     0.00000000e+00    
           5.56471292e-04     2.30597623e-04     0.00000000e+00    
           5.57714491e-04     3.07755603e-04     0.00000000e+00    
           2.90667871e-04     9.17168509e-05     0.00000000e+00    
           2.83403322e-04     1.55357600e-04     0.00000000e+00    
           5.54848521e-04     2.70785502e-04     0.00000000e+00    
           5.58433705e-04     3.12317949e-04     0.00000000e+00    
           6.32387295e-04     2.75827333e-04     0.00000000e+00    
           6.31548057e-04     4.00199526e-04     0.00000000e+00    
           5.71045151e-04     2.92693934e-04     0.00000000e+00    
           5.74430800e-04     3.38210288e-04     0.00000000e+00    
           4.36919625e-04     1.84888340e-04     0.00000000e+00    
           4.33905283e-04     3.21021798e-04     0.00000000e+00    
           1.09999999e-03     5.49999997e-04     0.00000000e+00    
           0.00000000e+00     0.00000000e+00     0.00000000e+00    
           0.00000000e+00     0.00000000e+00     0.00000000e+00    
           1.09999999e-03     5.49999997e-04     0.00000000e+00    
           7.77604175e-04     3.79592966e-04     0.00000000e+00    
           7.98416557e-04     3.88778164e-04     0.00000000e+00    
           8.15884152e-04     4.01726546e-04     0.00000000e+00    
           8.28755437e-04     4.17614414e-04     0.00000000e+00    
           8.36371677e-04     4.36023111e-04     0.00000000e+00    
           8.38681532e-04     4.55175265e-04     0.00000000e+00    
           8.35704908e-04     4.73680848e-04     0.00000000e+00    
           8.27106065e-04     4.90183011e-04     0.00000000e+00    
           8.12847458e-04     5.03563555e-04     0.00000000e+00    
           7.95047148e-04     5.12372470e-04     0.00000000e+00    
           7.74979009e-04     5.17180655e-04     0.00000000e+00    
           7.32086832e-04     5.13011240e-04     0.00000000e+00    
           7.11854373e-04     5.04469208e-04     0.00000000e+00    
           6.94650516e-04     4.91842977e-04     0.00000000e+00    
           6.81680744e-04     4.76374000e-04     0.00000000e+00    
           6.73888193e-04     4.59039817e-04     0.00000000e+00    
           6.71594811e-04     4.41325014e-04     0.00000000e+00    
           6.73898961e-04     4.24192898e-04     0.00000000e+00    
           6.80385681e-04     4.08087886e-04     0.00000000e+00    
           6.91339083e-04     3.93435184e-04     0.00000000e+00    
           7.08548410e-04     3.82048573e-04     0.00000000e+00    
           7.31145032e-04     3.75514472e-04     0.00000000e+00    
           6.86525949e-04     3.82456259e-04     0.00000000e+00    
           6.86423329e-04     3.66657099e-04     0.00000000e+00    
           6.90344372e-04     3.51111841e-04     0.00000000e+00    
           6.98884251e-04     3.37563542e-04     0.00000000e+00    
           7.11563975e-04     3.27095389e-04     0.00000000e+00    
           7.27193663e-04     3.19971325e-04     0.00000000e+00    
           7.44577905e-04     3.16844293e-04     0.00000000e+00    
           7.81296112e-04     3.19897314e-04     0.00000000e+00    
           7.98221387e-04     3.26756126e-04     0.00000000e+00    
           8.12924001e-04     3.36806494e-04     0.00000000e+00    
           8.24343821e-04     3.49346781e-04     0.00000000e+00    
           8.32524733e-04     3.63647123e-04     0.00000000e+00    
           8.37061380e-04     3.78704775e-04     0.00000000e+00    
           8.37062951e-04     3.94374714e-04     0.00000000e+00    
           8.23189563e-04     4.24313563e-04     0.00000000e+00    
           8.07241478e-04     4.35611437e-04     0.00000000e+00    
           7.88121426e-04     4.42124583e-04     0.00000000e+00    
           7.67968129e-04     4.44070145e-04     0.00000000e+00    
           7.48145510e-04     4.41179989e-04     0.00000000e+00    
           7.28909392e-04     4.34793765e-04     0.00000000e+00    
           7.12225738e-04     4.24907746e-04     0.00000000e+00    
           6.99465862e-04     4.11802641e-04     0.00000000e+00    
           1.06709951e-03     6.44882908e-04     0.00000000e+00    
           1.04405126e-03     6.42739062e-04     0.00000000e+00    
           1.02200115e-03     6.36403449e-04     0.00000000e+00    
           1.00242731e-03     6.25861983e-04     0.00000000e+00    
           9.86381085e-04     6.11799827e-04     0.00000000e+00    
           9.74040420e-04     5.95261343e-04     0.00000000e+00    
           9.65878891e-04     5.77110623e-04     0.00000000e+00    
           9.64926207e-04     5.38824126e-04     0.00000000e+00    
           9.72634589e-04     5.20477712e-04     0.00000000e+00    
           9.85766412e-04     5.04487427e-04     0.00000000e+00    
           1.00352289e-03     4.92242223e-04     0.00000000e+00    
           1.02304143e-03     4.85124183e-04     0.00000000e+00    
           1.04356674e-03     4.83220356e-04     0.00000000e+00    
           1.06567005e-03     4.85146127e-04     0.00000000e+00    
           9.92417608e-06    -4.76459900e-05     0.00000000e+00    
           2.80660188e-05    -3.32361851e-05     0.00000000e+00    
           4.17393239e-05    -1.59172741e-05     0.00000000e+00    
           5.04475174e-05     2.76946344e-06     0.00000000e+00    
           5.31809164e-05     2.27984892e-05     0.00000000e+00    
           5.08916855e-05     4.17585215e-05     0.00000000e+00    
           4.27197738e-05     5.98948682e-05     0.00000000e+00    
           2.93098128e-05     7.52975611e-05     0.00000000e+00    
           1.08410295e-05     8.65059192e-05     0.00000000e+00    
           1.03458716e-03     5.46840893e-04     0.00000000e+00    
           1.02461444e-03     5.46985189e-04     0.00000000e+00    
           1.01353345e-03     5.45245362e-04     0.00000000e+00    
           1.00154604e-03     5.41473797e-04     0.00000000e+00    
           9.89730936e-04     5.36263804e-04     0.00000000e+00    
           9.80303274e-04     5.29397454e-04     0.00000000e+00    
           9.74102295e-04     5.21643611e-04     0.00000000e+00    
           9.70613793e-04     5.14344778e-04     0.00000000e+00    
           9.72173701e-04     5.00748050e-04     0.00000000e+00    
           9.76876239e-04     4.94941836e-04     0.00000000e+00    
           9.83671634e-04     4.90669045e-04     0.00000000e+00    
           9.91805340e-04     4.87732148e-04     0.00000000e+00    
           1.00059772e-03     4.86674573e-04     0.00000000e+00    
           1.01060839e-03     4.86701407e-04     0.00000000e+00    
           1.02148356e-03     4.88279562e-04     0.00000000e+00    
           1.03269052e-03     4.91519866e-04     0.00000000e+00    
          -4.91617247e-05    -4.57091701e-05     0.00000000e+00    
          -4.37558665e-05    -3.74112606e-05     0.00000000e+00    
          -4.15350842e-05    -2.88726951e-05     0.00000000e+00    
          -4.30772707e-05    -2.00494942e-05     0.00000000e+00    
          -4.82122232e-05    -1.20610712e-05     0.00000000e+00    
           2.31971106e-04     3.88529770e-05     0.00000000e+00    
           2.54096900e-04     4.85293822e-05     0.00000000e+00    
           2.72491830e-04     6.26988622e-05     0.00000000e+00    
           2.86797760e-04     8.00523703e-05     0.00000000e+00    
           2.96664133e-04     1.00334611e-04     0.00000000e+00    
           3.00672575e-04     1.22461002e-04     0.00000000e+00    
           2.99140607e-04     1.45427490e-04     0.00000000e+00    
           2.90192576e-04     1.66276266e-04     0.00000000e+00    
           2.74477905e-04     1.83753058e-04     0.00000000e+00    
           2.53339211e-04     1.96169014e-04     0.00000000e+00    
           2.29094920e-04     2.02707888e-04     0.00000000e+00    
           1.78722999e-04     1.97997288e-04     0.00000000e+00    
           1.55375295e-04     1.87609345e-04     0.00000000e+00    
           1.35460374e-04     1.72472704e-04     0.00000000e+00    
           1.20486016e-04     1.53304325e-04     0.00000000e+00    
           1.11441645e-04     1.31389112e-04     0.00000000e+00    
           1.08744884e-04     1.08642562e-04     0.00000000e+00    
           1.12151363e-04     8.68013449e-05     0.00000000e+00    
           1.21951627e-04     6.73659670e-05     0.00000000e+00    
           1.37806215e-04     5.19985224e-05     0.00000000e+00    
           1.58407376e-04     4.16215698e-05     0.00000000e+00    
           1.82250194e-04     3.57518547e-05     0.00000000e+00    
           1.02679641e-03     4.74064116e-04     0.00000000e+00    
           1.03657006e-03     4.90237726e-04     0.00000000e+00    
           1.04206044e-03     5.08487166e-04     0.00000000e+00    
           1.04261551e-03     5.27170487e-04     0.00000000e+00    
           1.03796681e-03     5.44545415e-04     0.00000000e+00    
           1.02835987e-03     5.59160660e-04     0.00000000e+00    
           1.01502519e-03     5.69638389e-04     0.00000000e+00    
           9.99841257e-04     5.76294726e-04     0.00000000e+00    
           9.83509235e-04     5.79207845e-04     0.00000000e+00    
           9.44389962e-04     5.75841928e-04     0.00000000e+00    
           9.23592772e-04     5.68612828e-04     0.00000000e+00    
           9.05635708e-04     5.57340274e-04     0.00000000e+00    
           8.91770411e-04     5.43149712e-04     0.00000000e+00    
           8.82998225e-04     5.27059659e-04     0.00000000e+00    
           8.78628576e-04     5.10463142e-04     0.00000000e+00    
           8.78814026e-04     4.93507076e-04     0.00000000e+00    
           8.83450441e-04     4.76830901e-04     0.00000000e+00    
           8.94134457e-04     4.61698073e-04     0.00000000e+00    
           9.28221794e-04     4.42866469e-04     0.00000000e+00    
           9.46502027e-04     4.40213655e-04     0.00000000e+00    
           9.64815845e-04     4.41015989e-04     0.00000000e+00    
           9.82350321e-04     4.45148151e-04     0.00000000e+00    
           9.98713775e-04     4.51711559e-04     0.00000000e+00    
           8.67051422e-04     3.68990324e-04     0.00000000e+00    
           8.87486851e-04     3.77759920e-04     0.00000000e+00    
           9.06050089e-04     3.89668363e-04     0.00000000e+00    
           9.19816724e-04     4.04832768e-04     0.00000000e+00    
           9.29214992e-04     4.21388249e-04     0.00000000e+00    
           9.33644536e-04     4.38283081e-04     0.00000000e+00    
           9.33073286e-04     4.55892761e-04     0.00000000e+00    
           9.28071153e-04     4.73885768e-04     0.00000000e+00    
           9.17607511e-04     4.90250182e-04     0.00000000e+00    
           9.01830615e-04     5.03865653e-04     0.00000000e+00    
           8.82467255e-04     5.12900355e-04     0.00000000e+00    
           8.62004235e-04     5.16583794e-04     0.00000000e+00    
           8.20153218e-04     5.12637838e-04     0.00000000e+00    
           8.01148592e-04     5.04695869e-04     0.00000000e+00    
           7.84407021e-04     4.93569649e-04     0.00000000e+00    
           7.70899293e-04     4.79081908e-04     0.00000000e+00    
           7.61060102e-04     4.61895135e-04     0.00000000e+00    
           7.55489804e-04     4.42910503e-04     0.00000000e+00    
           7.55348010e-04     4.23774531e-04     0.00000000e+00    
           7.60053284e-04     4.05964034e-04     0.00000000e+00    
           7.70240440e-04     3.90223897e-04     0.00000000e+00    
           7.85101496e-04     3.77653138e-04     0.00000000e+00    
           8.03355768e-04     3.69048794e-04     0.00000000e+00    
           8.23795097e-04     3.64645122e-04     0.00000000e+00    
           1.00484327e-03     5.22483257e-04     0.00000000e+00    
           1.01680134e-03     5.27181255e-04     0.00000000e+00    
           1.02646963e-03     5.34093066e-04     0.00000000e+00    
           1.03282416e-03     5.42434573e-04     0.00000000e+00    
           1.03565119e-03     5.51395817e-04     0.00000000e+00    
           1.03490346e-03     5.60263405e-04     0.00000000e+00    
           1.03089190e-03     5.68162359e-04     0.00000000e+00    
           1.02421362e-03     5.74185222e-04     0.00000000e+00    
           1.01573498e-03     5.77895087e-04     0.00000000e+00    
           1.00671791e-03     5.78663952e-04     0.00000000e+00    
           9.85582010e-04     5.76958177e-04     0.00000000e+00    
           9.74422554e-04     5.73248137e-04     0.00000000e+00    
           9.64771141e-04     5.67003561e-04     0.00000000e+00    
           9.57473414e-04     5.58784639e-04     0.00000000e+00    
           9.53497249e-04     5.48457843e-04     0.00000000e+00    
           9.53729381e-04     5.37743967e-04     0.00000000e+00    
           9.57552867e-04     5.28544188e-04     0.00000000e+00    
           9.64602863e-04     5.22134011e-04     0.00000000e+00    
           9.72779351e-04     5.19342197e-04     0.00000000e+00    
           9.81680118e-04     5.19254652e-04     0.00000000e+00    
           3.66928463e-04     1.92578518e-04     0.00000000e+00    
           3.76065320e-04     1.96069290e-04     0.00000000e+00    
           3.83523933e-04     2.01481002e-04     0.00000000e+00    
           3.89546622e-04     2.09136051e-04     0.00000000e+00    
           3.92613409e-04     2.17583787e-04     0.00000000e+00    
           3.93161783e-04     2.25447686e-04     0.00000000e+00    
           3.91556765e-04     2.32227758e-04     0.00000000e+00    
           3.86994012e-04     2.38222114e-04     0.00000000e+00    
           3.78909259e-04     2.42165974e-04     0.00000000e+00    
           3.69583868e-04     2.44138952e-04     0.00000000e+00    
           3.59308557e-04     2.44940922e-04     0.00000000e+00    
           3.39082093e-04     2.42333292e-04     0.00000000e+00    
           3.30314593e-04     2.38289693e-04     0.00000000e+00    
           3.23458080e-04     2.32974984e-04     0.00000000e+00    
           3.18232487e-04     2.26648117e-04     0.00000000e+00    
           3.14761244e-04     2.19658730e-04     0.00000000e+00    
           3.13330878e-04     2.12279381e-04     0.00000000e+00    
           3.14971694e-04     2.04900411e-04     0.00000000e+00    
           3.19412677e-04     1.98240334e-04     0.00000000e+00    
           3.26694309e-04     1.93364802e-04     0.00000000e+00    
           3.35797202e-04     1.90368955e-04     0.00000000e+00    
           3.45963868e-04     1.89559330e-04     0.00000000e+00    
           2.14815358e-04     1.77392780e-04     0.00000000e+00    
           2.06329947e-04     1.66306461e-04     0.00000000e+00    
           2.01243805e-04     1.53051136e-04     0.00000000e+00    
           2.00292983e-04     1.38609306e-04     0.00000000e+00    
           2.03632400e-04     1.25090199e-04     0.00000000e+00    
           2.12442479e-04     1.12337446e-04     0.00000000e+00    
           2.25013384e-04     1.02846934e-04     0.00000000e+00    
           2.39282657e-04     9.81098710e-05     0.00000000e+00    
           2.53692124e-04     9.62482882e-05     0.00000000e+00    
           2.82434106e-04     9.98189716e-05     0.00000000e+00    
           2.95746577e-04     1.05388841e-04     0.00000000e+00    
           3.08136980e-04     1.14199713e-04     0.00000000e+00    
           3.18338425e-04     1.25551451e-04     0.00000000e+00    
           3.25812376e-04     1.38735719e-04     0.00000000e+00    
           3.28995578e-04     1.52217704e-04     0.00000000e+00    
           3.28306633e-04     1.64976940e-04     0.00000000e+00    
           3.23547487e-04     1.76618691e-04     0.00000000e+00    
           3.14751407e-04     1.86433943e-04     0.00000000e+00    
           2.88009905e-04     1.97781294e-04     0.00000000e+00    
           2.72303674e-04     1.98950729e-04     0.00000000e+00    
           2.55587016e-04     1.98215756e-04     0.00000000e+00    
           2.39518326e-04     1.94045453e-04     0.00000000e+00    
           5.68034651e-04     2.33685088e-04     0.00000000e+00    
           5.78750914e-04     2.38403954e-04     0.00000000e+00    
           5.88082010e-04     2.44689407e-04     0.00000000e+00    
           5.96320489e-04     2.52774393e-04     0.00000000e+00    
           6.02176471e-04     2.62529269e-04     0.00000000e+00    
           6.04559784e-04     2.73535989e-04     0.00000000e+00    
           6.03332708e-04     2.84900540e-04     0.00000000e+00    
           5.98673301e-04     2.94724363e-04     0.00000000e+00    
           5.91446180e-04     3.01775057e-04     0.00000000e+00    
           5.82424749e-04     3.05965921e-04     0.00000000e+00    
           5.71146666e-04     3.07531795e-04     0.00000000e+00    
           5.43606759e-04     3.05263238e-04     0.00000000e+00    
           5.30532037e-04     2.99713720e-04     0.00000000e+00    
           5.19310473e-04     2.91486445e-04     0.00000000e+00    
           5.10896440e-04     2.80995650e-04     0.00000000e+00    
           5.05889533e-04     2.69737560e-04     0.00000000e+00    
           5.04048076e-04     2.58896122e-04     0.00000000e+00    
           5.05471427e-04     2.49199278e-04     0.00000000e+00    
           5.10883925e-04     2.40760404e-04     0.00000000e+00    
           5.19976136e-04     2.34182691e-04     0.00000000e+00    