<?xml version="1.0"?>
<VTKFile type="UnstructuredGrid" version="0.1">
  <UnstructuredGrid>
    <Piece NumberOfPoints="1034" NumberOfCells="1614">
      <Points>
        <DataArray type="Float32" NumberOfComponents="3">
           5.21582007e-01     5.11657000e-01     0.00000000e+00    
           5.07319987e-01     5.11657000e-01     0.00000000e+00    
           4.65243995e-01     5.17907977e-01     0.00000000e+00    
           4.65243995e-01     5.04921973e-01     0.00000000e+00    
           4.75246996e-01     5.11415005e-01     0.00000000e+00    
           5.33852994e-01     5.04921973e-01     0.00000000e+00    
           5.33852994e-01     5.17907977e-01     0.00000000e+00    
           4.83779997e-01     5.34618974e-01     0.00000000e+00    
           4.68984991e-01     5.34618974e-01     0.00000000e+00    
           4.76381987e-01     5.23841977e-01     0.00000000e+00    
           4.68984991e-01     4.66010004e-01     0.00000000e+00    
           4.83779997e-01     4.66010004e-01     0.00000000e+00    
           4.99920011e-01     5.34618974e-01     0.00000000e+00    
           4.89203990e-01     5.34618974e-01     0.00000000e+00    
           4.94562000e-01     5.22280991e-01     0.00000000e+00    
           4.89203990e-01     4.66010004e-01     0.00000000e+00    
           4.99920011e-01     4.66010004e-01     0.00000000e+00    
           5.32517016e-01     4.74112004e-01     0.00000000e+00    
           5.17961025e-01     4.74112004e-01     0.00000000e+00    
           5.33852994e-01     5.19801974e-01     0.00000000e+00    
           5.33852994e-01     5.29603004e-01     0.00000000e+00    
           5.19536972e-01     5.24702013e-01     0.00000000e+00    
           4.65243995e-01     5.29603004e-01     0.00000000e+00    
           4.65243995e-01     5.19801974e-01     0.00000000e+00    
           4.92487997e-01     5.17117977e-01     0.00000000e+00    
           4.76904988e-01     5.17117977e-01     0.00000000e+00    
           5.17996013e-01     5.27033985e-01     0.00000000e+00    
           5.04473984e-01     5.27033985e-01     0.00000000e+00    
           5.08446991e-01     4.83435005e-01     0.00000000e+00    
           4.94414002e-01     4.83435005e-01     0.00000000e+00    
           4.65243995e-01     4.83101994e-01     0.00000000e+00    
           4.65243995e-01     4.74415004e-01     0.00000000e+00    
           4.78336990e-01     4.78758007e-01     0.00000000e+00    
           5.33852994e-01     4.74415004e-01     0.00000000e+00    
           5.33852994e-01     4.83101994e-01     0.00000000e+00    
           4.80668008e-01     4.95810986e-01     0.00000000e+00    
           4.66084987e-01     4.95810986e-01     0.00000000e+00    
           4.93930012e-01     4.79214013e-01     0.00000000e+00    
           4.78967011e-01     4.79214013e-01     0.00000000e+00    
           5.09284973e-01     4.97658014e-01     0.00000000e+00    
           4.95503992e-01     4.97658014e-01     0.00000000e+00    
           5.33011973e-01     5.01751006e-01     0.00000000e+00    
           5.17829001e-01     5.01751006e-01     0.00000000e+00    
           4.95451003e-01     5.00564992e-01     0.00000000e+00    
           4.80922014e-01     5.00564992e-01     0.00000000e+00    
           5.25367022e-01     4.88312006e-01     0.00000000e+00    
           5.09521008e-01     4.88312006e-01     0.00000000e+00    
           4.65243995e-01     5.34618974e-01     0.00000000e+00    
           4.65243995e-01     4.66010004e-01     0.00000000e+00    
           5.33852994e-01     4.66010004e-01     0.00000000e+00    
           5.33852994e-01     5.34618974e-01     0.00000000e+00    
           5.21338999e-01     5.13502657e-01     0.00000000e+00    
           5.20626605e-01     5.15222490e-01     0.00000000e+00    
           5.19493401e-01     5.16699374e-01     0.00000000e+00    
           5.18016517e-01     5.17832637e-01     0.00000000e+00    
           5.16296625e-01     5.18545032e-01     0.00000000e+00    
           5.14451027e-01     5.18787980e-01     0.00000000e+00    
           5.12605369e-01     5.18545032e-01     0.00000000e+00    
           5.10885477e-01     5.17832637e-01     0.00000000e+00    
           5.09408593e-01     5.16699374e-01     0.00000000e+00    
           5.08275390e-01     5.15222490e-01     0.00000000e+00    
           5.07562995e-01     5.13502657e-01     0.00000000e+00    
           5.07562995e-01     5.09811342e-01     0.00000000e+00    
           5.08275390e-01     5.08091509e-01     0.00000000e+00    
           5.09408593e-01     5.06614625e-01     0.00000000e+00    
           5.10885477e-01     5.05481362e-01     0.00000000e+00    
           5.12605369e-01     5.04768968e-01     0.00000000e+00    
           5.14451027e-01     5.04526019e-01     0.00000000e+00    
           5.16296625e-01     5.04768968e-01     0.00000000e+00    
           5.18016517e-01     5.05481362e-01     0.00000000e+00    
           5.19493401e-01     5.06614625e-01     0.00000000e+00    
           5.20626605e-01     5.08091509e-01     0.00000000e+00    
           5.21338999e-01     5.09811342e-01     0.00000000e+00    
           4.66931671e-01     5.04409373e-01     0.00000000e+00    
           4.68693614e-01     5.04328012e-01     0.00000000e+00    
           4.70421344e-01     5.04682958e-01     0.00000000e+00    
           4.72008497e-01     5.05452335e-01     0.00000000e+00    
           4.73357379e-01     5.06588817e-01     0.00000000e+00    
           4.74384934e-01     5.08022368e-01     0.00000000e+00    
           4.75027919e-01     5.09664834e-01     0.00000000e+00    
           4.75028187e-01     5.13165236e-01     0.00000000e+00    
           4.74385172e-01     5.14807761e-01     0.00000000e+00    
           4.73357558e-01     5.16241372e-01     0.00000000e+00    
           4.72008646e-01     5.17377913e-01     0.00000000e+00    
           4.70421433e-01     5.18147290e-01     0.00000000e+00    
           4.68693614e-01     5.18502235e-01     0.00000000e+00    
           4.66931641e-01     5.18420875e-01     0.00000000e+00    
           5.32303810e-01     5.16964078e-01     0.00000000e+00    
           5.31043947e-01     5.15658796e-01     0.00000000e+00    
           5.30155540e-01     5.14077127e-01     0.00000000e+00    
           5.29696345e-01     5.12322068e-01     0.00000000e+00    
           5.29696345e-01     5.10507941e-01     0.00000000e+00    
           5.30155540e-01     5.08752882e-01     0.00000000e+00    
           5.31043947e-01     5.07171214e-01     0.00000000e+00    
           5.32303810e-01     5.05865932e-01     0.00000000e+00    
           4.68517244e-01     5.32760799e-01     0.00000000e+00    
           4.68509018e-01     5.30844629e-01     0.00000000e+00    
           4.68960851e-01     5.28982460e-01     0.00000000e+00    
           4.69846308e-01     5.27283132e-01     0.00000000e+00    
           4.71113682e-01     5.25845945e-01     0.00000000e+00    
           4.72688884e-01     5.24754822e-01     0.00000000e+00    
           4.74479854e-01     5.24073541e-01     0.00000000e+00    
           4.78284091e-01     5.24073601e-01     0.00000000e+00    
           4.80075032e-01     5.24754822e-01     0.00000000e+00    
           4.81650203e-01     5.25845885e-01     0.00000000e+00    
           4.82917547e-01     5.27283013e-01     0.00000000e+00    
           4.83803004e-01     5.28982282e-01     0.00000000e+00    
           4.84254897e-01     5.30844331e-01     0.00000000e+00    
           4.84246761e-01     5.32760441e-01     0.00000000e+00    
           4.82887864e-01     4.67691004e-01     0.00000000e+00    
           4.81620818e-01     4.69110936e-01     0.00000000e+00    
           4.80051905e-01     4.70188022e-01     0.00000000e+00    
           4.78271484e-01     4.70860153e-01     0.00000000e+00    
           4.76382166e-01     4.71088618e-01     0.00000000e+00    
           4.74492878e-01     4.70860243e-01     0.00000000e+00    
           4.72712427e-01     4.70188200e-01     0.00000000e+00    
           4.71143454e-01     4.69111174e-01     0.00000000e+00    
           4.69876349e-01     4.67691302e-01     0.00000000e+00    
           4.88103986e-01     5.33086061e-01     0.00000000e+00    
           4.87431526e-01     5.31323195e-01     0.00000000e+00    
           4.87231195e-01     5.29447019e-01     0.00000000e+00    
           4.87516224e-01     5.27581930e-01     0.00000000e+00    
           4.88267750e-01     5.25851250e-01     0.00000000e+00    
           4.89436030e-01     5.24369657e-01     0.00000000e+00    
           4.90943670e-01     5.23235261e-01     0.00000000e+00    
           4.92690891e-01     5.22523046e-01     0.00000000e+00    
           4.96432930e-01     5.22523701e-01     0.00000000e+00    
           4.98180002e-01     5.23235798e-01     0.00000000e+00    
           4.99687493e-01     5.24370134e-01     0.00000000e+00    
           5.00855684e-01     5.25851607e-01     0.00000000e+00    
           5.01607120e-01     5.27582109e-01     0.00000000e+00    
           5.01892149e-01     5.29447079e-01     0.00000000e+00    
           5.01691818e-01     5.31323016e-01     0.00000000e+00    
           5.01019418e-01     5.33085763e-01     0.00000000e+00    
           4.98371124e-01     4.67269689e-01     0.00000000e+00    
           4.96539861e-01     4.68064904e-01     0.00000000e+00    
           4.94562000e-01     4.68336672e-01     0.00000000e+00    
           4.92584139e-01     4.68064904e-01     0.00000000e+00    
           4.90752876e-01     4.67269689e-01     0.00000000e+00    
           5.32269001e-01     4.75995690e-01     0.00000000e+00    
           5.31541944e-01     4.77750987e-01     0.00000000e+00    
           5.30385315e-01     4.79258329e-01     0.00000000e+00    
           5.28877974e-01     4.80414927e-01     0.00000000e+00    
[...]
      <PointData>
        <DataArray type="Float32" Name="Displacement" NumberOfComponents="3">
           2.47115712e-03     1.44428737e-03     0.00000000e+00    
           2.45255209e-03     1.68219709e-03     0.00000000e+00    
           1.62579818e-03     1.49794132e-03     0.00000000e+00    
           1.38117385e-03     1.47878064e-03     0.00000000e+00    
           1.51613506e-03     1.30474556e-03     0.00000000e+00    
           2.58117379e-03     1.47878064e-03     0.00000000e+00    
           2.82579823e-03     1.49794132e-03     0.00000000e+00    
           2.52094329e-03     2.12159893e-03     0.00000000e+00    
           2.50252802e-03     2.41175038e-03     0.00000000e+00    
           2.29419209e-03     2.25092121e-03     0.00000000e+00    
           1.02527942e-04     1.17503905e-05     0.00000000e+00    
           1.20943325e-04    -2.78401101e-04     0.00000000e+00    
           2.72587291e-03     2.04826170e-03     0.00000000e+00    
           2.71119317e-03     2.20560934e-03     0.00000000e+00    
           2.53266282e-03     2.10961211e-03     0.00000000e+00    
           3.11193231e-04    -1.94390639e-04     0.00000000e+00    
           3.25872941e-04    -3.51738418e-04     0.00000000e+00    
           1.33161107e-03     1.47468192e-04     0.00000000e+00    
           1.31341431e-03     3.59657424e-04     0.00000000e+00    
           2.86306441e-03     1.61637925e-03     0.00000000e+00    
           3.04350071e-03     1.63116248e-03     0.00000000e+00    
           2.93446169e-03     1.88442669e-03     0.00000000e+00    
           1.84350065e-03     1.63116248e-03     0.00000000e+00    
           1.66306435e-03     1.61637925e-03     0.00000000e+00    
           2.09154468e-03     1.63931842e-03     0.00000000e+00    
           2.07288540e-03     1.97491585e-03     0.00000000e+00    
           2.84361397e-03     1.84460985e-03     0.00000000e+00    
           2.82462896e-03     2.04362720e-03     0.00000000e+00    
           1.18174020e-03     4.39649157e-04     0.00000000e+00    
           1.16431084e-03     6.63366867e-04     0.00000000e+00    
           4.87508165e-04     3.53437877e-04     0.00000000e+00    
           3.61224869e-04     3.41234059e-04     0.00000000e+00    
           4.41718556e-04     1.61753880e-04     0.00000000e+00    
           1.56122493e-03     3.41234059e-04     0.00000000e+00    
           1.68750819e-03     3.53437877e-04     0.00000000e+00    
           1.12936320e-03     8.51129589e-04     0.00000000e+00    
           1.11128390e-03     1.14306738e-03     0.00000000e+00    
           6.48649991e-04     9.97523384e-05     0.00000000e+00    
           6.30204799e-04     3.34313314e-04     0.00000000e+00    
           1.55077816e-03     6.89223001e-04     0.00000000e+00    
           1.53235544e-03     9.19168582e-04     0.00000000e+00    
           2.31827796e-03     1.16439536e-03     0.00000000e+00    
           2.30005523e-03     1.46089355e-03     0.00000000e+00    
           1.49465678e-03     9.06604168e-04     0.00000000e+00    
           1.47558528e-03     1.16666302e-03     0.00000000e+00    
           1.52090436e-03     4.19002346e-04     0.00000000e+00    
           1.50059524e-03     6.35431090e-04     0.00000000e+00    
           2.40000011e-03     2.40000011e-03     0.00000000e+00    
           0.00000000e+00     0.00000000e+00     0.00000000e+00    
           1.20000006e-03     0.00000000e+00     0.00000000e+00    
           3.59999994e-03     2.40000011e-03     0.00000000e+00    
           2.50182161e-03     1.45179324e-03     0.00000000e+00    
           2.53014290e-03     1.46595854e-03     0.00000000e+00    
           2.55396659e-03     1.48696429e-03     0.00000000e+00    
           2.57163751e-03     1.51333259e-03     0.00000000e+00    
           2.58194422e-03     1.54308474e-03     0.00000000e+00    
           2.58410769e-03     1.57445366e-03     0.00000000e+00    
           2.57824617e-03     1.60530908e-03     0.00000000e+00    
           2.56418646e-03     1.63358124e-03     0.00000000e+00    
           2.54193135e-03     1.65695313e-03     0.00000000e+00    
           2.51428247e-03     1.67272764e-03     0.00000000e+00    
           2.48385081e-03     1.68124319e-03     0.00000000e+00    
           2.42189900e-03     1.67542277e-03     0.00000000e+00    
           2.39370950e-03     1.66168576e-03     0.00000000e+00    
           2.36990023e-03     1.64125359e-03     0.00000000e+00    
           2.35180254e-03     1.61561323e-03     0.00000000e+00    
           2.34091608e-03     1.58604339e-03     0.00000000e+00    
           2.33844691e-03     1.55476108e-03     0.00000000e+00    
           2.34478409e-03     1.52373500e-03     0.00000000e+00    
           2.35997909e-03     1.49517320e-03     0.00000000e+00    
           2.38168426e-03     1.47135998e-03     0.00000000e+00    
           2.40824930e-03     1.45394960e-03     0.00000000e+00    
           2.43874732e-03     1.44476199e-03     0.00000000e+00    
           1.37376669e-03     1.44638738e-03     0.00000000e+00    
           1.37445633e-03     1.41348946e-03     0.00000000e+00    
           1.38304953e-03     1.38176861e-03     0.00000000e+00    
           1.39968737e-03     1.35322055e-03     0.00000000e+00    
           1.42367894e-03     1.33012445e-03     0.00000000e+00    
           1.45237253e-03     1.31401792e-03     0.00000000e+00    
           1.48380070e-03     1.30587653e-03     0.00000000e+00    
           1.54813565e-03     1.31092826e-03     0.00000000e+00    
           1.57828582e-03     1.32434641e-03     0.00000000e+00    
           1.60429557e-03     1.34471525e-03     0.00000000e+00    
           1.62464706e-03     1.37073337e-03     0.00000000e+00    
           1.63766742e-03     1.40122534e-03     0.00000000e+00    
           1.64238317e-03     1.43425213e-03     0.00000000e+00    
           1.63788104e-03     1.46734586e-03     0.00000000e+00    
           2.80632055e-03     1.52544898e-03     0.00000000e+00    
           2.78000394e-03     1.54694635e-03     0.00000000e+00    
           2.74873688e-03     1.55986066e-03     0.00000000e+00    
           2.71539856e-03     1.56500353e-03     0.00000000e+00    
           2.68233451e-03     1.56192528e-03     0.00000000e+00    
           2.65008258e-03     1.55145559e-03     0.00000000e+00    
           2.62100692e-03     1.53370958e-03     0.00000000e+00    
           2.59749219e-03     1.50896423e-03     0.00000000e+00    
           2.46479502e-03     2.41723144e-03     0.00000000e+00    
           2.42719986e-03     2.41459231e-03     0.00000000e+00    
           2.39055301e-03     2.40382506e-03     0.00000000e+00    
           2.35720119e-03     2.38464330e-03     0.00000000e+00    
           2.32930528e-03     2.35816580e-03     0.00000000e+00    
           2.30873842e-03     2.32583121e-03     0.00000000e+00    
           2.29684007e-03     2.28924910e-03     0.00000000e+00    
           2.30105594e-03     2.21304782e-03     0.00000000e+00    
           2.31702579e-03     2.17825593e-03     0.00000000e+00    
           2.34116265e-03     2.14834115e-03     0.00000000e+00    
           2.37295660e-03     2.12511257e-03     0.00000000e+00    
           2.40930240e-03     2.11134390e-03     0.00000000e+00    
           2.44692247e-03     2.10652896e-03     0.00000000e+00    
           2.48486805e-03     2.10970012e-03     0.00000000e+00    
           1.53262838e-04    -2.58683896e-04     0.00000000e+00    
           1.80067684e-04    -2.31817336e-04     0.00000000e+00    
           1.99679969e-04    -1.99523813e-04     0.00000000e+00    
           2.11028484e-04    -1.63344244e-04     0.00000000e+00    
           2.13390245e-04    -1.25838851e-04     0.00000000e+00    
           2.06867640e-04    -8.89549992e-05     0.00000000e+00    
           1.91731320e-04    -5.45670264e-05     0.00000000e+00    
           1.68393060e-04    -2.49168061e-05     0.00000000e+00    
           1.37432231e-04    -2.37385120e-06     0.00000000e+00    
           2.68635270e-03     2.21829908e-03     0.00000000e+00    
           2.65961187e-03     2.22449377e-03     0.00000000e+00    
           2.63194088e-03     2.22463091e-03     0.00000000e+00    
           2.60498701e-03     2.21797568e-03     0.00000000e+00    
           2.58062570e-03     2.20533600e-03     0.00000000e+00    
           2.55960925e-03     2.18715169e-03     0.00000000e+00    
           2.54387129e-03     2.16408167e-03     0.00000000e+00    
           2.53446749e-03     2.13766494e-03     0.00000000e+00    
           2.53836694e-03     2.08188826e-03     0.00000000e+00    
           2.55194027e-03     2.05651019e-03     0.00000000e+00    
           2.57218187e-03     2.03621038e-03     0.00000000e+00    
           2.59708799e-03     2.02171714e-03     0.00000000e+00    
           2.62391171e-03     2.01399252e-03     0.00000000e+00    
           2.65197712e-03     2.01252918e-03     0.00000000e+00    
           2.67951353e-03     2.01818277e-03     0.00000000e+00    
           2.70453794e-03     2.03024410e-03     0.00000000e+00    
           3.42834188e-04    -3.27521237e-04     0.00000000e+00    
           3.52587987e-04    -2.99578649e-04     0.00000000e+00    
           3.54349148e-04    -2.69968092e-04     0.00000000e+00    
           3.47655558e-04    -2.40986759e-04     0.00000000e+00    
           3.32969561e-04    -2.15023858e-04     0.00000000e+00    
           1.35986914e-03     1.53022062e-04     0.00000000e+00    
           1.38586131e-03     1.65476915e-04     0.00000000e+00    
           1.40773202e-03     1.84591176e-04     0.00000000e+00    
           1.42335333e-03     2.08810321e-04     0.00000000e+00    
           1.43182627e-03     2.36346779e-04     0.00000000e+00    
           1.43254932e-03     2.65344599e-04     0.00000000e+00    
           1.42584194e-03     2.92913057e-04     0.00000000e+00    
           1.41260878e-03     3.17899074e-04     0.00000000e+00    
           1.39334821e-03     3.38646554e-04     0.00000000e+00    
           1.36851391e-03     3.52909206e-04     0.00000000e+00    
           1.34108344e-03     3.59858706e-04     0.00000000e+00    
           1.28586474e-03     3.53635551e-04     0.00000000e+00    
           1.26064115e-03     3.40968196e-04     0.00000000e+00    
           1.23910711e-03     3.22484062e-04     0.00000000e+00    
           1.22290675e-03     2.99208827e-04     0.00000000e+00    
           1.21334405e-03     2.72610312e-04     0.00000000e+00    
           1.21109700e-03     2.44441908e-04     0.00000000e+00    
           1.21648831e-03     2.16416622e-04     0.00000000e+00    
           1.22973917e-03     1.90970095e-04     0.00000000e+00    
           1.25024258e-03     1.70087646e-04     0.00000000e+00    
           1.27534289e-03     1.56112961e-04     0.00000000e+00    
           1.30314438e-03     1.48523250e-04     0.00000000e+00    
           3.06838891e-03     1.65792136e-03     0.00000000e+00    
           3.08590755e-03     1.68994861e-03     0.00000000e+00    
           3.09503148e-03     1.72527367e-03     0.00000000e+00    
           3.09485476e-03     1.76152459e-03     0.00000000e+00    
           3.08548938e-03     1.79666583e-03     0.00000000e+00    
           3.06656351e-03     1.82881439e-03     0.00000000e+00    
           3.03907203e-03     1.85483485e-03     0.00000000e+00    
           3.00659658e-03     1.87300891e-03     0.00000000e+00    
           2.97121098e-03     1.88293762e-03     0.00000000e+00    
           2.89855315e-03     1.87694188e-03     0.00000000e+00    
           2.86565698e-03     1.86130276e-03     0.00000000e+00    
           2.83750845e-03     1.83820946e-03     0.00000000e+00    
           2.81552738e-03     1.80902390e-03     0.00000000e+00    
           2.80134194e-03     1.77542120e-03     0.00000000e+00    
           2.79637566e-03     1.73927273e-03     0.00000000e+00    
           2.80078943e-03     1.70284673e-03     0.00000000e+00    
           2.81416439e-03     1.66898209e-03     0.00000000e+00    
           2.83513661e-03     1.63951353e-03     0.00000000e+00    
           1.69225282e-03     1.60294748e-03     0.00000000e+00    
           1.72299391e-03     1.59625267e-03     0.00000000e+00    
           1.75458519e-03     1.59538072e-03     0.00000000e+00    
           1.78641104e-03     1.60106330e-03     0.00000000e+00    
           1.81655283e-03     1.61298306e-03     0.00000000e+00    
           2.13178969e-03     1.64713745e-03     0.00000000e+00    
           2.16923142e-03     1.66380324e-03     0.00000000e+00    
           2.20237253e-03     1.68847083e-03     0.00000000e+00    
           2.22876179e-03     1.72036292e-03     0.00000000e+00    
           2.24655122e-03     1.75775553e-03     0.00000000e+00    
           2.25448888e-03     1.79851556e-03     0.00000000e+00    
           2.25215498e-03     1.83948292e-03     0.00000000e+00    
           2.24031648e-03     1.87879766e-03     0.00000000e+00    
           2.21910537e-03     1.91385113e-03     0.00000000e+00    
           2.18944624e-03     1.94278662e-03     0.00000000e+00    
           2.15263059e-03     1.96306384e-03     0.00000000e+00    
           2.11349898e-03     1.97292375e-03     0.00000000e+00    
           2.03228300e-03     1.96750718e-03     0.00000000e+00    
           1.99421472e-03     1.95123639e-03     0.00000000e+00    
           1.96102960e-03     1.92635495e-03     0.00000000e+00    
           1.93477911e-03     1.89439522e-03     0.00000000e+00    
           1.91700261e-03     1.85724476e-03     0.00000000e+00    
           1.90876296e-03     1.81696226e-03     0.00000000e+00    
           1.91034109e-03     1.77598803e-03     0.00000000e+00    
           1.92209182e-03     1.73659925e-03     0.00000000e+00    
           1.94347673e-03     1.70119689e-03     0.00000000e+00    
           1.97404134e-03     1.67185860e-03     0.00000000e+00    
           2.01066630e-03     1.65161502e-03     0.00000000e+00    
           2.05058791e-03     1.64086488e-03     0.00000000e+00    
           2.87176506e-03     1.85140898e-03     0.00000000e+00    
           2.89656827e-03     1.86543318e-03     0.00000000e+00    
           2.91680219e-03     1.88578642e-03     0.00000000e+00    
           2.93085305e-03     1.91075436e-03     0.00000000e+00    
           2.93718907e-03     1.93876249e-03     0.00000000e+00    
           2.93532806e-03     1.96760171e-03     0.00000000e+00    
           2.92478874e-03     1.99492974e-03     0.00000000e+00    
           2.90600071e-03     2.01783678e-03     0.00000000e+00    
           2.88117817e-03     2.03409861e-03     0.00000000e+00    
           2.85351882e-03     2.04241974e-03     0.00000000e+00    
           2.79646832e-03     2.03676568e-03     0.00000000e+00    
           2.77151330e-03     2.02252367e-03     0.00000000e+00    
           2.75139976e-03     2.00202502e-03     0.00000000e+00    
           2.73778779e-03     1.97662436e-03     0.00000000e+00    
           2.73191184e-03     1.94864650e-03     0.00000000e+00    
           2.73393607e-03     1.92010612e-03     0.00000000e+00    
           2.74421577e-03     1.89312827e-03     0.00000000e+00    
           2.76320614e-03     1.87047909e-03     0.00000000e+00    
           2.78718700e-03     1.85489468e-03     0.00000000e+00    
           2.81461678e-03     1.84610975e-03     0.00000000e+00    
           1.21129095e-03     4.45858837e-04     0.00000000e+00    
           1.23832317e-03     4.59506904e-04     0.00000000e+00    
           1.26063568e-03     4.79595095e-04     0.00000000e+00    
           1.27676490e-03     5.04392025e-04     0.00000000e+00    
           1.28634565e-03     5.32374310e-04     0.00000000e+00    
           1.28871389e-03     5.61920926e-04     0.00000000e+00    
           1.28317240e-03     5.91038202e-04     0.00000000e+00    
           1.26974471e-03     6.17979094e-04     0.00000000e+00    
           1.24833593e-03     6.39634323e-04     0.00000000e+00    
           1.22245797e-03     6.54343632e-04     0.00000000e+00    
           1.19374995e-03     6.62250211e-04     0.00000000e+00    
           1.13474985e-03     6.57657452e-04     0.00000000e+00    
           1.10750913e-03     6.44485641e-04     0.00000000e+00    
           1.08454202e-03     6.25014247e-04     0.00000000e+00    
           1.06743537e-03     6.00369822e-04     0.00000000e+00    
           1.05740363e-03     5.72183344e-04     0.00000000e+00    
           1.05494668e-03     5.42441674e-04     0.00000000e+00    
           1.06088922e-03     5.12986036e-04     0.00000000e+00    
           1.07498607e-03     4.85638651e-04     0.00000000e+00    
           1.09658507e-03     4.63602715e-04     0.00000000e+00    
           1.12300203e-03     4.48308710e-04     0.00000000e+00    
           1.15190935e-03     4.40551579e-04     0.00000000e+00    
           3.43680294e-04     3.21516156e-04     0.00000000e+00    
           3.31657444e-04     2.97838007e-04     0.00000000e+00    
           3.26126785e-04     2.72070494e-04     0.00000000e+00    
           3.27207556e-04     2.46001058e-04     0.00000000e+00    
           3.34619399e-04     2.21052076e-04     0.00000000e+00    
           3.48030269e-04     1.98664726e-04     0.00000000e+00    
           3.67695175e-04     1.80515461e-04     0.00000000e+00    
           3.90806847e-04     1.69474908e-04     0.00000000e+00    
           4.15533461e-04     1.63021279e-04     0.00000000e+00    
           4.67693637e-04     1.67006598e-04     0.00000000e+00    
           4.91475512e-04     1.78452916e-04     0.00000000e+00    
           5.11501741e-04     1.95461049e-04     0.00000000e+00    
           5.26774151e-04     2.16772707e-04     0.00000000e+00    
           5.36281790e-04     2.40877882e-04     0.00000000e+00    
           5.39709814e-04     2.66617426e-04     0.00000000e+00    
           5.36211825e-04     2.92672921e-04     0.00000000e+00    
           5.25861862e-04     3.17124854e-04     0.00000000e+00    
           5.09049860e-04     3.37943231e-04     0.00000000e+00    
           1.66266039e-03     3.62810097e-04     0.00000000e+00    
           1.63655879e-03     3.66359280e-04     0.00000000e+00    
           1.60969957e-03     3.64556909e-04     0.00000000e+00    
           1.58399285e-03     3.56246514e-04     0.00000000e+00    
           1.16781436e-03     8.58375221e-04     0.00000000e+00    
           1.20318809e-03     8.75303696e-04     0.00000000e+00    
           1.23288203e-03     9.00728744e-04     0.00000000e+00    
           1.25486602e-03     9.32889176e-04     0.00000000e+00    
           1.26759859e-03     9.69697488e-04     0.00000000e+00    
           1.27045426e-03     1.00848079e-03     0.00000000e+00    
           1.26311474e-03     1.04645442e-03     0.00000000e+00    
           1.24582148e-03     1.08131452e-03     0.00000000e+00    
           1.21932651e-03     1.10995292e-03     0.00000000e+00    
           1.18649832e-03     1.13036984e-03     0.00000000e+00    
           1.14962854e-03     1.14131428e-03     0.00000000e+00    
           1.07364904e-03     1.13557372e-03     0.00000000e+00    
           1.03881070e-03     1.11870945e-03     0.00000000e+00    
           1.00906449e-03     1.09387795e-03     0.00000000e+00    
           9.86382482e-04     1.06230180e-03     0.00000000e+00    
           9.72640642e-04     1.02595589e-03     0.00000000e+00    
           9.69032117e-04     9.87383071e-04     0.00000000e+00    
           9.75699048e-04     9.49118519e-04     0.00000000e+00    
           9.92703950e-04     9.13795375e-04     0.00000000e+00    
           1.01940369e-03     8.84436129e-04     0.00000000e+00    