<?xml version="1.0"?>
<VTKFile type="UnstructuredGrid" version="0.1">
  <UnstructuredGrid>
    <Piece NumberOfPoints="1034" NumberOfCells="1614">
      <Points>
        <DataArray type="Float32" NumberOfComponents="3">
           5.21582007e-01     5.11657000e-01     0.00000000e+00    
           5.07319987e-01     5.11657000e-01     0.00000000e+00    
           4.65243995e-01     5.17907977e-01     0.00000000e+00    
           4.65243995e-01     5.04921973e-01     0.00000000e+00    
           4.75246996e-01     5.11415005e-01     0.00000000e+00    
           5.33852994e-01     5.04921973e-01     0.00000000e+00    
           5.33852994e-01     5.17907977e-01     0.00000000e+00    
           4.83779997e-01     5.34618974e-01     0.00000000e+00    
           4.68984991e-01     5.34618974e-01     0.00000000e+00    
           4.76381987e-01     5.23841977e-01     0.00000000e+00    
           4.68984991e-01     4.66010004e-01     0.00000000e+00    
           4.83779997e-01     4.66010004e-01     0.00000000e+00    
           4.99920011e-01     5.34618974e-01     0.00000000e+00    
           4.89203990e-01     5.34618974e-01     0.00000000e+00    
           4.94562000e-01     5.22280991e-01     0.00000000e+00    
           4.89203990e-01     4.66010004e-01     0.00000000e+00    
           4.99920011e-01     4.66010004e-01     0.00000000e+00    
           5.32517016e-01     4.74112004e-01     0.00000000e+00    
           5.17961025e-01     4.74112004e-01     0.00000000e+00    
           5.33852994e-01     5.19801974e-01     0.00000000e+00    
           5.33852994e-01     5.29603004e-01     0.00000000e+00    
           5.19536972e-01     5.24702013e-01     0.00000000e+00    
           4.65243995e-01     5.29603004e-01     0.00000000e+00    
           4.65243995e-01     5.19801974e-01     0.00000000e+00    
           4.92487997e-01     5.17117977e-01     0.00000000e+00    
           4.76904988e-01     5.17117977e-01     0.00000000e+00    
           5.17996013e-01     5.27033985e-01     0.00000000e+00    
           5.04473984e-01     5.27033985e-01     0.00000000e+00    
           5.08446991e-01     4.83435005e-01     0.00000000e+00    
           4.94414002e-01     4.83435005e-01     0.00000000e+00    
           4.65243995e-01     4.83101994e-01     0.00000000e+00    
           4.65243995e-01     4.74415004e-01     0.00000000e+00    
           4.78336990e-01     4.78758007e-01     0.00000000e+00    
           5.33852994e-01     4.74415004e-01     0.00000000e+00    
           5.33852994e-01     4.83101994e-01     0.00000000e+00    
           4.80668008e-01     4.95810986e-01     0.00000000e+00    
           4.66084987e-01     4.95810986e-01     0.00000000e+00    
           4.93930012e-01     4.79214013e-01     0.00000000e+00    
           4.78967011e-01     4.79214013e-01     0.00000000e+00    
           5.09284973e-01     4.97658014e-01     0.00000000e+00    
           4.95503992e-01     4.97658014e-01     0.00000000e+00    
           5.33011973e-01     5.01751006e-01     0.00000000e+00    
           5.17829001e-01     5.01751006e-01     0.00000000e+00    
           4.95451003e-01     5.00564992e-01     0.00000000e+00    
           4.80922014e-01     5.00564992e-01     0.00000000e+00    
           5.25367022e-01     4.88312006e-01     0.00000000e+00    
           5.09521008e-01     4.88312006e-01     0.00000000e+00    
           4.65243995e-01     5.34618974e-01     0.00000000e+00    
           4.65243995e-01     4.66010004e-01     0.00000000e+00    
           5.33852994e-01     4.66010004e-01     0.00000000e+00    
           5.33852994e-01     5.34618974e-01     0.00000000e+00    
           5.21338999e-01     5.13502657e-01     0.00000000e+00    
           5.20626605e-01     5.15222490e-01     0.00000000e+00    
           5.19493401e-01     5.16699374e-01     0.00000000e+00    
           5.18016517e-01     5.17832637e-01     0.00000000e+00    
           5.16296625e-01     5.18545032e-01     0.00000000e+00    
           5.14451027e-01     5.18787980e-01     0.00000000e+00    
           5.12605369e-01     5.18545032e-01     0.00000000e+00    
           5.10885477e-01     5.17832637e-01     0.00000000e+00    
           5.09408593e-01     5.16699374e-01     0.00000000e+00    
           5.08275390e-01     5.15222490e-01     0.00000000e+00    
           5.07562995e-01     5.13502657e-01     0.00000000e+00    
           5.07562995e-01     5.09811342e-01     0.00000000e+00    
           5.08275390e-01     5.08091509e-01     0.00000000e+00    
           5.09408593e-01     5.06614625e-01     0.00000000e+00    
           5.10885477e-01     5.05481362e-01     0.00000000e+00    
           5.12605369e-01     5.04768968e-01     0.00000000e+00    
           5.14451027e-01     5.04526019e-01     0.00000000e+00    
           5.16296625e-01     5.04768968e-01     0.00000000e+00    
           5.18016517e-01     5.05481362e-01     0.00000000e+00    
           5.19493401e-01     5.06614625e-01     0.00000000e+00    
           5.20626605e-01     5.08091509e-01     0.00000000e+00    
           5.21338999e-01     5.09811342e-01     0.00000000e+00    
           4.66931671e-01     5.04409373e-01     0.00000000e+00    
           4.68693614e-01     5.04328012e-01     0.00000000e+00    
           4.70421344e-01     5.04682958e-01     0.00000000e+00    
           4.72008497e-01     5.05452335e-01     0.00000000e+00    
           4.73357379e-01     5.06588817e-01     0.00000000e+00    
           4.74384934e-01     5.08022368e-01     0.00000000e+00    
           4.75027919e-01     5.09664834e-01     0.00000000e+00    
           4.75028187e-01     5.13165236e-01     0.00000000e+00    
           4.74385172e-01     5.14807761e-01     0.00000000e+00    
           4.73357558e-01     5.16241372e-01     0.00000000e+00    
           4.72008646e-01     5.17377913e-01     0.00000000e+00    
           4.70421433e-01     5.18147290e-01     0.00000000e+00    
           4.68693614e-01     5.18502235e-01     0.00000000e+00    
           4.66931641e-01     5.18420875e-01     0.00000000e+00    
           5.32303810e-01     5.16964078e-01     0.00000000e+00    
           5.31043947e-01     5.15658796e-01     0.00000000e+00    
           5.30155540e-01     5.14077127e-01     0.00000000e+00    
           5.29696345e-01     5.12322068e-01     0.00000000e+00    
           5.29696345e-01     5.10507941e-01     0.00000000e+00    
           5.30155540e-01     5.08752882e-01     0.00000000e+00    
           5.31043947e-01     5.07171214e-01     0.00000000e+00    
           5.32303810e-01     5.05865932e-01     0.00000000e+00    
           4.68517244e-01     5.32760799e-01     0.00000000e+00    
           4.68509018e-01     5.30844629e-01     0.00000000e+00    
           4.68960851e-01     5.28982460e-01     0.00000000e+00    
           4.69846308e-01     5.27283132e-01     0.00000000e+00    
           4.71113682e-01     5.25845945e-01     0.00000000e+00    
           4.72688884e-01     5.24754822e-01     0.00000000e+00    
           4.74479854e-01     5.24073541e-01     0.00000000e+00    
           4.78284091e-01     5.24073601e-01     0.00000000e+00    
           4.80075032e-01     5.24754822e-01     0.00000000e+00    
           4.81650203e-01     5.25845885e-01     0.00000000e+00    
           4.82917547e-01     5.27283013e-01     0.00000000e+00    
           4.83803004e-01     5.28982282e-01     0.00000000e+00    
           4.84254897e-01     5.30844331e-01     0.00000000e+00    
           4.84246761e-01     5.32760441e-01     0.00000000e+00    
           4.82887864e-01     4.67691004e-01     0.00000000e+00    
           4.81620818e-01     4.69110936e-01     0.00000000e+00    
           4.80051905e-01     4.70188022e-01     0.00000000e+00    
           4.78271484e-01     4.70860153e-01     0.00000000e+00    
           4.76382166e-01     4.71088618e-01     0.00000000e+00    
           4.74492878e-01     4.70860243e-01     0.00000000e+00    
           4.72712427e-01     4.70188200e-01     0.00000000e+00    
           4.71143454e-01     4.69111174e-01     0.00000000e+00    
           4.69876349e-01     4.67691302e-01     0.00000000e+00    
           4.88103986e-01     5.33086061e-01     0.00000000e+00    
           4.87431526e-01     5.31323195e-01     0.00000000e+00    
           4.87231195e-01     5.29447019e-01     0.00000000e+00    
           4.87516224e-01     5.27581930e-01     0.00000000e+00    
           4.88267750e-01     5.25851250e-01     0.00000000e+00    
           4.89436030e-01     5.24369657e-01     0.00000000e+00    
           4.90943670e-01     5.23235261e-01     0.00000000e+00    
           4.92690891e-01     5.22523046e-01     0.00000000e+00    
           4.96432930e-01     5.22523701e-01     0.00000000e+00    
           4.98180002e-01     5.23235798e-01     0.00000000e+00    
           4.99687493e-01     5.24370134e-01     0.00000000e+00    
           5.00855684e-01     5.25851607e-01     0.00000000e+00    
           5.01607120e-01     5.27582109e-01     0.00000000e+00    
           5.01892149e-01     5.29447079e-01     0.00000000e+00    
           5.01691818e-01     5.31323016e-01     0.00000000e+00    
           5.01019418e-01     5.33085763e-01     0.00000000e+00    
           4.98371124e-01     4.67269689e-01     0.00000000e+00    
           4.96539861e-01     4.68064904e-01     0.00000000e+00    
           4.94562000e-01     4.68336672e-01     0.00000000e+00    
           4.92584139e-01     4.68064904e-01     0.00000000e+00    
           4.90752876e-01     4.67269689e-01     0.00000000e+00    
           5.32269001e-01     4.75995690e-01     0.00000000e+00    
           5.31541944e-01     4.77750987e-01     0.00000000e+00    
           5.30385315e-01     4.79258329e-01     0.00000000e+00    
           5.28877974e-01     4.80414927e-01     0.00000000e+00    
[...]
      <PointData>
        <DataArray type="Float32" Name="Displacement" NumberOfComponents="3">
           5.72047429e-04     1.35720875e-05     0.00000000e+00    
           5.64757443e-04     4.98997833e-05     0.00000000e+00    
           3.85696534e-04     3.03715001e-06     0.00000000e+00    
           3.24726192e-04     2.97211704e-06     0.00000000e+00    
           3.63360508e-04    -2.66847037e-05     0.00000000e+00    
           5.99726161e-04     2.97211704e-06     0.00000000e+00    
           6.60696533e-04     3.03715001e-06     0.00000000e+00    
           5.74364618e-04    -3.56928686e-05     0.00000000e+00    
           5.66714967e-04     3.49224028e-05     0.00000000e+00    
           5.07774181e-04     1.02686033e-06     0.00000000e+00    
           1.67149483e-05     3.49224028e-05     0.00000000e+00    
           2.43646391e-05    -3.56928686e-05     0.00000000e+00    
           6.12167874e-04    -4.64830518e-05     0.00000000e+00    
           6.07671856e-04    -1.94569711e-05     0.00000000e+00    
           5.65229857e-04    -3.58223551e-05     0.00000000e+00    
           5.76718448e-05    -1.94569711e-05     0.00000000e+00    
           6.21678701e-05    -4.64830518e-05     0.00000000e+00    
           3.39096849e-04     4.39018368e-06     0.00000000e+00    
           3.27618909e-04     6.08367045e-05     0.00000000e+00    
           6.77473843e-04    -4.98527879e-06     0.00000000e+00    
           7.37071619e-04    -6.52935978e-06     0.00000000e+00    
           6.96418399e-04     6.10253301e-05     0.00000000e+00    
           4.62071650e-04    -6.52935978e-06     0.00000000e+00    
           4.02473845e-04    -4.98527879e-06     0.00000000e+00    
           4.73020074e-04    -5.17238223e-05     0.00000000e+00    
           4.61187941e-04     2.36894193e-05     0.00000000e+00    
           6.67411834e-04     2.47487624e-05     0.00000000e+00    
           6.55656448e-04     4.39909636e-05     0.00000000e+00    
           2.98786093e-04    -1.72240543e-05     0.00000000e+00    
           2.83368281e-04     2.22928411e-05     0.00000000e+00    
           1.46001112e-04     4.15797731e-05     0.00000000e+00    
           9.44582207e-05     4.00939280e-05     0.00000000e+00    
           1.34795497e-04    -2.09995742e-05     0.00000000e+00    
           3.69458226e-04     4.00939280e-05     0.00000000e+00    
           4.21001110e-04     4.15797731e-05     0.00000000e+00    
           2.93775840e-04    -2.68004114e-05     0.00000000e+00    
           2.82205961e-04     2.79064298e-05     0.00000000e+00    
           1.92408756e-04    -4.32616507e-05     0.00000000e+00    
           1.73719469e-04     1.24576873e-05     0.00000000e+00    
           3.82074446e-04    -1.92840525e-06     0.00000000e+00    
           3.73690476e-04     1.34020656e-05     0.00000000e+00    
           5.43956587e-04    -1.54458976e-05     0.00000000e+00    
           5.34872408e-04     4.01702237e-05     0.00000000e+00    
           3.58502381e-04    -2.77862218e-05     0.00000000e+00    
           3.46173387e-04    -4.56765019e-06     0.00000000e+00    
           3.93227703e-04     1.69215728e-05     0.00000000e+00    
           3.81607475e-04     6.34705793e-05     0.00000000e+00    
           5.49999997e-04     0.00000000e+00     0.00000000e+00    
           0.00000000e+00     0.00000000e+00     0.00000000e+00    
           2.74999999e-04     0.00000000e+00     0.00000000e+00    
           8.24999996e-04     0.00000000e+00     0.00000000e+00    
           5.79204469e-04     1.42118943e-05     0.00000000e+00    
           5.85729780e-04     1.64768535e-05     0.00000000e+00    
           5.91054210e-04     1.95444263e-05     0.00000000e+00    
           5.94731944e-04     2.29886009e-05     0.00000000e+00    
           5.96648490e-04     2.68303502e-05     0.00000000e+00    
           5.96946687e-04     3.09357238e-05     0.00000000e+00    
           5.95458434e-04     3.57965000e-05     0.00000000e+00    
           5.91694261e-04     4.09192107e-05     0.00000000e+00    
           5.85885602e-04     4.53332468e-05     0.00000000e+00    
           5.79258951e-04     4.82275100e-05     0.00000000e+00    
           5.72105404e-04     4.97548936e-05     0.00000000e+00    
           5.57643245e-04     4.84822085e-05     0.00000000e+00    
           5.51257865e-04     4.59134753e-05     0.00000000e+00    
           5.46252530e-04     4.24877762e-05     0.00000000e+00    
           5.42979222e-04     3.87527507e-05     0.00000000e+00    
           5.41958667e-04     3.47096102e-05     0.00000000e+00    
           5.43179631e-04     3.07189439e-05     0.00000000e+00    
           5.45693736e-04     2.72771231e-05     0.00000000e+00    
           5.49146382e-04     2.47359094e-05     0.00000000e+00    
           5.53636288e-04     2.20447509e-05     0.00000000e+00    
           5.58686210e-04     1.80804072e-05     0.00000000e+00    
           5.64847491e-04     1.48037307e-05     0.00000000e+00    
           3.25055153e-04    -6.27720567e-07     0.00000000e+00    
           3.26454203e-04    -4.53741768e-06     0.00000000e+00    
           3.28966824e-04    -9.48994057e-06     0.00000000e+00    
           3.33382399e-04    -1.49291209e-05     0.00000000e+00    
           3.39324994e-04    -2.01064777e-05     0.00000000e+00    
           3.46606656e-04    -2.39462279e-05     0.00000000e+00    
           3.54714197e-04    -2.61233527e-05     0.00000000e+00    
           3.71519360e-04    -2.58577074e-05     0.00000000e+00    
           3.78151832e-04    -2.37905952e-05     0.00000000e+00    
           3.83156468e-04    -2.06412242e-05     0.00000000e+00    
           3.86485830e-04    -1.63987115e-05     0.00000000e+00    
           3.88599467e-04    -1.14589793e-05     0.00000000e+00    
           3.89209978e-04    -6.35158494e-06     0.00000000e+00    
           3.88136599e-04    -1.59666365e-06     0.00000000e+00    
           6.56312099e-04     8.62909474e-06     0.00000000e+00    
           6.49590162e-04     1.38412024e-05     0.00000000e+00    
           6.41141261e-04     1.77615348e-05     0.00000000e+00    
           6.31899456e-04     1.93699343e-05     0.00000000e+00    
           6.22250547e-04     1.86230718e-05     0.00000000e+00    
           6.12896809e-04     1.56121259e-05     0.00000000e+00    
           6.05563109e-04     1.12653097e-05     0.00000000e+00    
           6.01504813e-04     6.59645366e-06     0.00000000e+00    
           5.54180704e-04     3.66183303e-05     0.00000000e+00    
           5.41741552e-04     3.60248523e-05     0.00000000e+00    
           5.30438207e-04     3.35059049e-05     0.00000000e+00    
           5.21371374e-04     2.92262630e-05     0.00000000e+00    
           5.14806656e-04     2.32288967e-05     0.00000000e+00    
           5.10336889e-04     1.60315449e-05     0.00000000e+00    
           5.07973367e-04     8.38037795e-06     0.00000000e+00    
           5.09614707e-04    -5.98463703e-06     0.00000000e+00    
           5.13745472e-04    -1.35776227e-05     0.00000000e+00    
           5.20903675e-04    -2.19392805e-05     0.00000000e+00    
           5.30654797e-04    -2.96788985e-05     0.00000000e+00    
           5.41905116e-04    -3.53082833e-05     0.00000000e+00    
           5.53117192e-04    -3.80895690e-05     0.00000000e+00    
           5.64035610e-04    -3.81516729e-05     0.00000000e+00    
           3.39169019e-05    -3.09984680e-05     0.00000000e+00    
           4.20271426e-05    -2.45492520e-05     0.00000000e+00    
           4.80049748e-05    -1.71515167e-05     0.00000000e+00    
           5.14975291e-05    -9.63553521e-06     0.00000000e+00    
           5.22324081e-05    -1.85208603e-06     0.00000000e+00    
           5.07009245e-05     5.99948771e-06     0.00000000e+00    
           4.59022340e-05     1.52042321e-05     0.00000000e+00    
           3.81219470e-05     2.38606353e-05     0.00000000e+00    
           2.80287368e-05     3.06470938e-05     0.00000000e+00    
           6.01081818e-04    -1.62450142e-05     0.00000000e+00    
           5.93964069e-04    -1.43974648e-05     0.00000000e+00    
           5.86818438e-04    -1.40283846e-05     0.00000000e+00    
           5.79844287e-04    -1.52943103e-05     0.00000000e+00    
           5.72657271e-04    -1.88647409e-05     0.00000000e+00    
           5.67038776e-04    -2.36236665e-05     0.00000000e+00    
           5.64115355e-04    -2.82287074e-05     0.00000000e+00    
           5.63548005e-04    -3.20783620e-05     0.00000000e+00    
           5.68340358e-04    -3.96432370e-05     0.00000000e+00    
           5.72793768e-04    -4.30548935e-05     0.00000000e+00    
           5.78436418e-04    -4.58227732e-05     0.00000000e+00    
           5.84664696e-04    -4.80511844e-05     0.00000000e+00    
           5.90885873e-04    -4.95641580e-05     0.00000000e+00    
           5.96843252e-04    -5.02610092e-05     0.00000000e+00    
           6.02251617e-04    -5.01815812e-05     0.00000000e+00    
           6.07418653e-04    -4.88674232e-05     0.00000000e+00    
           6.60837104e-05    -4.28655076e-05     0.00000000e+00    
           6.85986815e-05    -3.85359672e-05     0.00000000e+00    
           6.93017719e-05    -3.38711943e-05     0.00000000e+00    
           6.76073396e-05    -2.88308238e-05     0.00000000e+00    
           6.36373879e-05    -2.39035671e-05     0.00000000e+00    
           3.49162554e-04     6.24452150e-06     0.00000000e+00    
           3.56562668e-04     9.60373836e-06     0.00000000e+00    
           3.61317012e-04     1.31632532e-05     0.00000000e+00    
           3.64373438e-04     1.81449377e-05     0.00000000e+00    
           3.66099324e-04     2.39942656e-05     0.00000000e+00    
           3.66263674e-04     3.02724984e-05     0.00000000e+00    
           3.64440872e-04     3.64066436e-05     0.00000000e+00    
           3.60770850e-04     4.30662585e-05     0.00000000e+00    
           3.54927703e-04     4.97715955e-05     0.00000000e+00    
           3.46819725e-04     5.56329323e-05     0.00000000e+00    
           3.37453501e-04     5.94807825e-05     0.00000000e+00    
           3.17982398e-04     6.00882631e-05     0.00000000e+00    
           3.09095107e-04     5.73082762e-05     0.00000000e+00    
           3.01611522e-04     5.29105127e-05     0.00000000e+00    
           2.96089071e-04     4.71329658e-05     0.00000000e+00    
           2.92975106e-04     4.03882113e-05     0.00000000e+00    
           2.92285316e-04     3.28529168e-05     0.00000000e+00    
           2.94444850e-04     2.46203981e-05     0.00000000e+00    
           2.99883104e-04     1.66195132e-05     0.00000000e+00    
           3.07434122e-04     1.02512950e-05     0.00000000e+00    
           3.16810794e-04     5.99537043e-06     0.00000000e+00    
           3.27580230e-04     3.96911810e-06     0.00000000e+00    
           7.43774290e-04    -4.66157047e-07     0.00000000e+00    
           7.48440856e-04     7.07336358e-06     0.00000000e+00    
           7.50997569e-04     1.59171504e-05     0.00000000e+00    
           7.50383711e-04     2.57069678e-05     0.00000000e+00    
           7.46068370e-04     3.60464110e-05     0.00000000e+00    
           7.38748931e-04     4.53137218e-05     0.00000000e+00    
           7.29120220e-04     5.25558244e-05     0.00000000e+00    
           7.18228694e-04     5.77050341e-05     0.00000000e+00    
           7.06967898e-04     6.05472887e-05     0.00000000e+00    
           6.86549931e-04     5.92601900e-05     0.00000000e+00    
           6.77044271e-04     5.52765378e-05     0.00000000e+00    
           6.68658118e-04     4.96208595e-05     0.00000000e+00    
           6.62445789e-04     4.27301129e-05     0.00000000e+00    
           6.58913807e-04     3.48548092e-05     0.00000000e+00    
           6.57968631e-04     2.64407536e-05     0.00000000e+00    
           6.59167767e-04     1.79662893e-05     0.00000000e+00    
           6.62533508e-04     1.01449668e-05     0.00000000e+00    
           6.68428664e-04     2.29049760e-06     0.00000000e+00    
           4.12369554e-04    -1.01667556e-05     0.00000000e+00    
           4.23261634e-04    -1.32076129e-05     0.00000000e+00    
           4.34417656e-04    -1.40418742e-05     0.00000000e+00    
           4.45032492e-04    -1.29116470e-05     0.00000000e+00    
           4.54396562e-04    -1.02866870e-05     0.00000000e+00    
           4.84846998e-04    -5.00725037e-05     0.00000000e+00    
           4.96113498e-04    -4.55427871e-05     0.00000000e+00    
           5.06031094e-04    -3.91550420e-05     0.00000000e+00    
           5.12476487e-04    -3.18194907e-05     0.00000000e+00    
           5.15886117e-04    -2.47452663e-05     0.00000000e+00    
           5.16123022e-04    -1.77162619e-05     0.00000000e+00    
           5.14411135e-04    -1.09578123e-05     0.00000000e+00    
           5.11326827e-04    -3.81524615e-06     0.00000000e+00    
           5.05414559e-04     4.03574768e-06     0.00000000e+00    
           4.96626657e-04     1.21706589e-05     0.00000000e+00    
           4.85629309e-04     1.85406043e-05     0.00000000e+00    
           4.73599561e-04     2.23784537e-05     0.00000000e+00    
           4.49526560e-04     2.25822914e-05     0.00000000e+00    
           4.39746771e-04     1.95014891e-05     0.00000000e+00    
           4.32072935e-04     1.51221811e-05     0.00000000e+00    
           4.26238548e-04     8.88367231e-06     0.00000000e+00    
           4.22190031e-04     1.37868835e-06     0.00000000e+00    
           4.20148543e-04    -6.84334691e-06     0.00000000e+00    
           4.20512573e-04    -1.57641352e-05     0.00000000e+00    
           4.23981692e-04    -2.49338900e-05     0.00000000e+00    
           4.30434186e-04    -3.38574573e-05     0.00000000e+00    
           4.39178606e-04    -4.15732029e-05     0.00000000e+00    
           4.49622283e-04    -4.72380634e-05     0.00000000e+00    
           4.61081101e-04    -5.07041332e-05     0.00000000e+00    
           6.71280373e-04     2.53461803e-05     0.00000000e+00    
           6.74622541e-04     2.68267722e-05     0.00000000e+00    
           6.77318079e-04     2.88957126e-05     0.00000000e+00    
           6.78830023e-04     3.13778437e-05     0.00000000e+00    
           6.78685436e-04     3.40686966e-05     0.00000000e+00    
           6.76993339e-04     3.68286346e-05     0.00000000e+00    
           6.73726783e-04     3.93291775e-05     0.00000000e+00    
           6.69404515e-04     4.12630288e-05     0.00000000e+00    
           6.64433523e-04     4.26779698e-05     0.00000000e+00    
           6.59754500e-04     4.33999776e-05     0.00000000e+00    
           6.52260729e-04     4.43275130e-05     0.00000000e+00    
           6.49129273e-04     4.39227479e-05     0.00000000e+00    
           6.46442757e-04     4.28808344e-05     0.00000000e+00    
           6.44319865e-04     4.14034912e-05     0.00000000e+00    
           6.43397565e-04     3.90118585e-05     0.00000000e+00    
           6.43864740e-04     3.56375313e-05     0.00000000e+00    
           6.46641944e-04     3.15577126e-05     0.00000000e+00    
           6.51605427e-04     2.80818258e-05     0.00000000e+00    
           6.56892720e-04     2.60343713e-05     0.00000000e+00    
           6.62426930e-04     2.51179645e-05     0.00000000e+00    
           3.06749862e-04    -1.62555662e-05     0.00000000e+00    
           3.13011202e-04    -1.48694571e-05     0.00000000e+00    
           3.17504775e-04    -1.22095953e-05     0.00000000e+00    
           3.20955995e-04    -8.13040788e-06     0.00000000e+00    
           3.23313696e-04    -2.57713691e-06     0.00000000e+00    
           3.23621411e-04     2.88927117e-06     0.00000000e+00    
           3.21263418e-04     8.19854631e-06     0.00000000e+00    
           3.16381629e-04     1.34507645e-05     0.00000000e+00    
           3.09590338e-04     1.72428154e-05     0.00000000e+00    
           3.01788794e-04     1.98707603e-05     0.00000000e+00    
           2.92663870e-04     2.18288187e-05     0.00000000e+00    
           2.75189843e-04     2.14006868e-05     0.00000000e+00    
           2.69016047e-04     1.91838990e-05     0.00000000e+00    
           2.65052164e-04     1.60625423e-05     0.00000000e+00    
           2.62591755e-04     1.20660980e-05     0.00000000e+00    
           2.61413632e-04     7.25692780e-06     0.00000000e+00    
           2.61769281e-04     2.00670115e-06     0.00000000e+00    
           2.64252303e-04    -3.23411268e-06     0.00000000e+00    
           2.68608390e-04    -8.09326048e-06     0.00000000e+00    
           2.74753693e-04    -1.20029345e-05     0.00000000e+00    
           2.81989167e-04    -1.50044798e-05     0.00000000e+00    
           2.90139404e-04    -1.66708232e-05     0.00000000e+00    
           8.93377219e-05     3.55759803e-05     0.00000000e+00    
           8.52354933e-05     2.98062932e-05     0.00000000e+00    
           8.28234479e-05     2.28590270e-05     0.00000000e+00    
           8.23540104e-05     1.50418518e-05     0.00000000e+00    
           8.47844058e-05     6.56325210e-06     0.00000000e+00    
           9.10988965e-05    -2.71750719e-06     0.00000000e+00    
           1.00458383e-04    -1.08261693e-05     0.00000000e+00    
           1.11592490e-04    -1.65620459e-05     0.00000000e+00    
           1.23571284e-04    -1.99877359e-05     0.00000000e+00    
           1.44169928e-04    -1.99153055e-05     0.00000000e+00    
           1.51294473e-04    -1.73231874e-05     0.00000000e+00    
           1.57698305e-04    -1.30002527e-05     0.00000000e+00    
           1.63226374e-04    -6.86736803e-06     0.00000000e+00    
           1.67154416e-04     1.03521950e-06     0.00000000e+00    
           1.68388913e-04     1.00266543e-05     0.00000000e+00    
           1.66625847e-04     1.92467523e-05     0.00000000e+00    
           1.62073367e-04     2.81183020e-05     0.00000000e+00    
           1.54988200e-04     3.57031968e-05     0.00000000e+00    
           4.10202338e-04     4.56181006e-05     0.00000000e+00    
           3.98259173e-04     4.68433318e-05     0.00000000e+00    
           3.86483443e-04     4.63823671e-05     0.00000000e+00    
           3.76642653e-04     4.36552982e-05     0.00000000e+00    
           3.03204346e-04    -2.54575571e-05     0.00000000e+00    
           3.09882773e-04    -2.28662175e-05     0.00000000e+00    
           3.14262899e-04    -1.89269249e-05     0.00000000e+00    
           3.17457656e-04    -1.39576068e-05     0.00000000e+00    
           3.19380517e-04    -8.40198391e-06     0.00000000e+00    
           3.19396961e-04    -2.33821447e-06     0.00000000e+00    
           3.17404192e-04     4.17930551e-06     0.00000000e+00    
           3.13040393e-04     1.12511289e-05     0.00000000e+00    
           3.06435482e-04     1.79494327e-05     0.00000000e+00    
           2.98812112e-04     2.29987509e-05     0.00000000e+00    
           2.90625438e-04     2.63398615e-05     0.00000000e+00    
           2.73842161e-04     2.75059356e-05     0.00000000e+00    
           2.65960960e-04     2.53449962e-05     0.00000000e+00    
           2.59166904e-04     2.14172633e-05     0.00000000e+00    
           2.54006940e-04     1.57064296e-05     0.00000000e+00    
           2.50818615e-04     8.66070241e-06     0.00000000e+00    
           2.50207260e-04     7.91374532e-07     0.00000000e+00    
           2.52373313e-04    -7.16473869e-06     0.00000000e+00    
           2.57066335e-04    -1.40993388e-05     0.00000000e+00    
           2.64087605e-04    -1.98212474e-05     0.00000000e+00    