<?xml version="1.0"?>
<VTKFile type="UnstructuredGrid" version="0.1">
  <UnstructuredGrid>
    <Piece NumberOfPoints="1034" NumberOfCells="1614">
      <Points>
        <DataArray type="Float32" NumberOfComponents="3">
           5.21582007e-01     5.11657000e-01     0.00000000e+00    
           5.07319987e-01     5.11657000e-01     0.00000000e+00    
           4.65243995e-01     5.17907977e-01     0.00000000e+00    
           4.65243995e-01     5.04921973e-01     0.00000000e+00    
           4.75246996e-01     5.11415005e-01     0.00000000e+00    
           5.33852994e-01     5.04921973e-01     0.00000000e+00    
           5.33852994e-01     5.17907977e-01     0.00000000e+00    
           4.83779997e-01     5.34618974e-01     0.00000000e+00    
           4.68984991e-01     5.34618974e-01     0.00000000e+00    
           4.76381987e-01     5.23841977e-01     0.00000000e+00    
           4.68984991e-01     4.66010004e-01     0.00000000e+00    
           4.83779997e-01     4.66010004e-01     0.00000000e+00    
           4.99920011e-01     5.34618974e-01     0.00000000e+00    
           4.89203990e-01     5.34618974e-01     0.00000000e+00    
           4.94562000e-01     5.22280991e-01     0.00000000e+00    
           4.89203990e-01     4.66010004e-01     0.00000000e+00    
           4.99920011e-01     4.66010004e-01     0.00000000e+00    
           5.32517016e-01     4.74112004e-01     0.00000000e+00    
           5.17961025e-01     4.74112004e-01     0.00000000e+00    
           5.33852994e-01     5.19801974e-01     0.00000000e+00    
           5.33852994e-01     5.29603004e-01     0.00000000e+00    
           5.19536972e-01     5.24702013e-01     0.00000000e+00    
           4.65243995e-01     5.29603004e-01     0.00000000e+00    
           4.65243995e-01     5.19801974e-01     0.00000000e+00    
           4.92487997e-01     5.17117977e-01     0.00000000e+00    
           4.76904988e-01     5.17117977e-01     0.00000000e+00    
           5.17996013e-01     5.27033985e-01     0.00000000e+00    
           5.04473984e-01     5.27033985e-01     0.00000000e+00    
           5.08446991e-01     4.83435005e-01     0.00000000e+00    
           4.94414002e-01     4.83435005e-01     0.00000000e+00    
           4.65243995e-01     4.83101994e-01     0.00000000e+00    
           4.65243995e-01     4.74415004e-01     0.00000000e+00    
           4.78336990e-01     4.78758007e-01     0.00000000e+00    
           5.33852994e-01     4.74415004e-01     0.00000000e+00    
           5.33852994e-01     4.83101994e-01     0.00000000e+00    
           4.80668008e-01     4.95810986e-01     0.00000000e+00    
           4.66084987e-01     4.95810986e-01     0.00000000e+00    
           4.93930012e-01     4.79214013e-01     0.00000000e+00    
           4.78967011e-01     4.79214013e-01     0.00000000e+00    
           5.09284973e-01     4.97658014e-01     0.00000000e+00    
           4.95503992e-01     4.97658014e-01     0.00000000e+00    
           5.33011973e-01     5.01751006e-01     0.00000000e+00    
           5.17829001e-01     5.01751006e-01     0.00000000e+00    
           4.95451003e-01     5.00564992e-01     0.00000000e+00    
           4.80922014e-01     5.00564992e-01     0.00000000e+00    
           5.25367022e-01     4.88312006e-01     0.00000000e+00    
           5.09521008e-01     4.88312006e-01     0.00000000e+00    
           4.65243995e-01     5.34618974e-01     0.00000000e+00    
           4.65243995e-01     4.66010004e-01     0.00000000e+00    
           5.33852994e-01     4.66010004e-01     0.00000000e+00    
           5.33852994e-01     5.34618974e-01     0.00000000e+00    
           5.21338999e-01     5.13502657e-01     0.00000000e+00    
           5.20626605e-01     5.15222490e-01     0.00000000e+00    
           5.19493401e-01     5.16699374e-01     0.00000000e+00    
           5.18016517e-01     5.17832637e-01     0.00000000e+00    
           5.16296625e-01     5.18545032e-01     0.00000000e+00    
           5.14451027e-01     5.18787980e-01     0.00000000e+00    
           5.12605369e-01     5.18545032e-01     0.00000000e+00    
           5.10885477e-01     5.17832637e-01     0.00000000e+00    
           5.09408593e-01     5.16699374e-01     0.00000000e+00    
           5.08275390e-01     5.15222490e-01     0.00000000e+00    
           5.07562995e-01     5.13502657e-01     0.00000000e+00    
           5.07562995e-01     5.09811342e-01     0.00000000e+00    
           5.08275390e-01     5.08091509e-01     0.00000000e+00    
           5.09408593e-01     5.06614625e-01     0.00000000e+00    
           5.10885477e-01     5.05481362e-01     0.00000000e+00    
           5.12605369e-01     5.04768968e-01     0.00000000e+00    
           5.14451027e-01     5.04526019e-01     0.00000000e+00    
           5.16296625e-01     5.04768968e-01     0.00000000e+00    
           5.18016517e-01     5.05481362e-01     0.00000000e+00    
           5.19493401e-01     5.06614625e-01     0.00000000e+00    
           5.20626605e-01     5.08091509e-01     0.00000000e+00    
           5.21338999e-01     5.09811342e-01     0.00000000e+00    
           4.66931671e-01     5.04409373e-01     0.00000000e+00    
           4.68693614e-01     5.04328012e-01     0.00000000e+00    
           4.70421344e-01     5.04682958e-01     0.00000000e+00    
           4.72008497e-01     5.05452335e-01     0.00000000e+00    
           4.73357379e-01     5.06588817e-01     0.00000000e+00    
           4.74384934e-01     5.08022368e-01     0.00000000e+00    
           4.75027919e-01     5.09664834e-01     0.00000000e+00    
           4.75028187e-01     5.13165236e-01     0.00000000e+00    
           4.74385172e-01     5.14807761e-01     0.00000000e+00    
           4.73357558e-01     5.16241372e-01     0.00000000e+00    
           4.72008646e-01     5.17377913e-01     0.00000000e+00    
           4.70421433e-01     5.18147290e-01     0.00000000e+00    
           4.68693614e-01     5.18502235e-01     0.00000000e+00    
           4.66931641e-01     5.18420875e-01     0.00000000e+00    
           5.32303810e-01     5.16964078e-01     0.00000000e+00    
           5.31043947e-01     5.15658796e-01     0.00000000e+00    
           5.30155540e-01     5.14077127e-01     0.00000000e+00    
           5.29696345e-01     5.12322068e-01     0.00000000e+00    
           5.29696345e-01     5.10507941e-01     0.00000000e+00    
           5.30155540e-01     5.08752882e-01     0.00000000e+00    
           5.31043947e-01     5.07171214e-01     0.00000000e+00    
           5.32303810e-01     5.05865932e-01     0.00000000e+00    
           4.68517244e-01     5.32760799e-01     0.00000000e+00    
           4.68509018e-01     5.30844629e-01     0.00000000e+00    
           4.68960851e-01     5.28982460e-01     0.00000000e+00    
           4.69846308e-01     5.27283132e-01     0.00000000e+00    
           4.71113682e-01     5.25845945e-01     0.00000000e+00    
           4.72688884e-01     5.24754822e-01     0.00000000e+00    
           4.74479854e-01     5.24073541e-01     0.00000000e+00    
           4.78284091e-01     5.24073601e-01     0.00000000e+00    
           4.80075032e-01     5.24754822e-01     0.00000000e+00    
           4.81650203e-01     5.25845885e-01     0.00000000e+00    
           4.82917547e-01     5.27283013e-01     0.00000000e+00    
           4.83803004e-01     5.28982282e-01     0.00000000e+00    
           4.84254897e-01     5.30844331e-01     0.00000000e+00    
           4.84246761e-01     5.32760441e-01     0.00000000e+00    
           4.82887864e-01     4.67691004e-01     0.00000000e+00    
           4.81620818e-01     4.69110936e-01     0.00000000e+00    
           4.80051905e-01     4.70188022e-01     0.00000000e+00    
           4.78271484e-01     4.70860153e-01     0.00000000e+00    
           4.76382166e-01     4.71088618e-01     0.00000000e+00    
           4.74492878e-01     4.70860243e-01     0.00000000e+00    
           4.72712427e-01     4.70188200e-01     0.00000000e+00    
           4.71143454e-01     4.69111174e-01     0.00000000e+00    
           4.69876349e-01     4.67691302e-01     0.00000000e+00    
           4.88103986e-01     5.33086061e-01     0.00000000e+00    
           4.87431526e-01     5.31323195e-01     0.00000000e+00    
           4.87231195e-01     5.29447019e-01     0.00000000e+00    
           4.87516224e-01     5.27581930e-01     0.00000000e+00    
           4.88267750e-01     5.25851250e-01     0.00000000e+00    
           4.89436030e-01     5.24369657e-01     0.00000000e+00    
           4.90943670e-01     5.23235261e-01     0.00000000e+00    
           4.92690891e-01     5.22523046e-01     0.00000000e+00    
           4.96432930e-01     5.22523701e-01     0.00000000e+00    
           4.98180002e-01     5.23235798e-01     0.00000000e+00    
           4.99687493e-01     5.24370134e-01     0.00000000e+00    
           5.00855684e-01     5.25851607e-01     0.00000000e+00    
           5.01607120e-01     5.27582109e-01     0.00000000e+00    
           5.01892149e-01     5.29447079e-01     0.00000000e+00    
           5.01691818e-01     5.31323016e-01     0.00000000e+00    
           5.01019418e-01     5.33085763e-01     0.00000000e+00    
           4.98371124e-01     4.67269689e-01     0.00000000e+00    
           4.96539861e-01     4.68064904e-01     0.00000000e+00    
           4.94562000e-01     4.68336672e-01     0.00000000e+00    
           4.92584139e-01     4.68064904e-01     0.00000000e+00    
           4.90752876e-01     4.67269689e-01     0.00000000e+00    
           5.32269001e-01     4.75995690e-01     0.00000000e+00    
           5.31541944e-01     4.77750987e-01     0.00000000e+00    
           5.30385315e-01     4.79258329e-01     0.00000000e+00    
           5.28877974e-01     4.80414927e-01     0.00000000e+00    
[...]
      <PointData>
        <DataArray type="Float32" Name="Displacement" NumberOfComponents="3">
           2.22411379e-03     1.16312651e-04     0.00000000e+00    
           2.20789760e-03     2.45133211e-04     0.00000000e+00    
           1.50794652e-03     3.42477724e-05     0.00000000e+00    
           1.28120091e-03     3.98085249e-05     0.00000000e+00    
           1.40890991e-03    -1.16359493e-04     0.00000000e+00    
           2.33120099e-03     3.98085249e-05     0.00000000e+00    
           2.55794660e-03     3.42477724e-05     0.00000000e+00    
           2.16642511e-03    -2.34732608e-04     0.00000000e+00    
           2.15040939e-03     8.35752071e-05     0.00000000e+00    
           1.90620706e-03    -7.34285713e-05     0.00000000e+00    
           5.04092786e-05     8.35752071e-05     0.00000000e+00    
           6.64250038e-05    -2.34732608e-04     0.00000000e+00    
           2.26479932e-03    -3.24181921e-04     0.00000000e+00    
           2.25531100e-03    -2.32337945e-04     0.00000000e+00    
           2.12996500e-03    -2.83087080e-04     0.00000000e+00    
           1.55310961e-04    -2.32337945e-04     0.00000000e+00    
           1.64799421e-04    -3.24181921e-04     0.00000000e+00    
           1.22104574e-03    -2.22752406e-05     0.00000000e+00    
           1.20416400e-03     2.48846773e-04     0.00000000e+00    
           2.58829980e-03     1.20408117e-06     0.00000000e+00    
           2.77815573e-03    -5.00315809e-06     0.00000000e+00    
           2.66304938e-03     2.44992960e-04     0.00000000e+00    
           1.72815565e-03    -5.00315809e-06     0.00000000e+00    
           1.53829996e-03     1.20408117e-06     0.00000000e+00    
           1.75753713e-03    -3.68726032e-04     0.00000000e+00    
           1.73525396e-03    -2.82210840e-05     0.00000000e+00    
           2.56843562e-03     1.25459890e-04     0.00000000e+00    
           2.55035539e-03     2.78870226e-04     0.00000000e+00    
           1.05839607e-03    -1.89259270e-04     0.00000000e+00    
           1.04216824e-03    -2.62240192e-05     0.00000000e+00    
           5.25949872e-04     1.62484401e-04     0.00000000e+00    
           2.95288890e-04     1.60624899e-04     0.00000000e+00    
           4.30100248e-04    -1.67915772e-04     0.00000000e+00    
           1.34528894e-03     1.60624899e-04     0.00000000e+00    
           1.57594983e-03     1.62484401e-04     0.00000000e+00    
           1.06131786e-03    -2.16158092e-04     0.00000000e+00    
           1.04470341e-03     9.63148414e-05     0.00000000e+00    
           6.02655113e-04    -4.05761792e-04     0.00000000e+00    
           5.80740336e-04    -4.44679899e-05     0.00000000e+00    
           1.42870238e-03    -1.01068683e-04     0.00000000e+00    
           1.41615025e-03    -4.86920835e-05     0.00000000e+00    
           2.11720634e-03    -9.33778756e-06     0.00000000e+00    
           2.10244744e-03     1.82884076e-04     0.00000000e+00    
           1.30031689e-03    -3.70340975e-04     0.00000000e+00    
           1.28314574e-03    -1.26749364e-04     0.00000000e+00    
           1.49063696e-03     9.86253726e-05     0.00000000e+00    
           1.47321506e-03     3.39070626e-04     0.00000000e+00    
           2.09999993e-03     0.00000000e+00     0.00000000e+00    
           0.00000000e+00     0.00000000e+00     0.00000000e+00    
           1.04999996e-03     0.00000000e+00     0.00000000e+00    
           3.15000000e-03     0.00000000e+00     0.00000000e+00    
           2.24530697e-03     1.18710719e-04     0.00000000e+00    
           2.26374343e-03     1.25827370e-04     0.00000000e+00    
           2.27887975e-03     1.36277173e-04     0.00000000e+00    
           2.28992314e-03     1.49124840e-04     0.00000000e+00    
           2.29626521e-03     1.63835604e-04     0.00000000e+00    
           2.29790853e-03     1.79411392e-04     0.00000000e+00    
           2.29374622e-03     1.97163143e-04     0.00000000e+00    
           2.28280481e-03     2.14872518e-04     0.00000000e+00    
           2.26592179e-03     2.29458339e-04     0.00000000e+00    
           2.24751094e-03     2.38538312e-04     0.00000000e+00    
           2.22812220e-03     2.43946459e-04     0.00000000e+00    
           2.18845042e-03     2.41668749e-04     0.00000000e+00    
           2.17114040e-03     2.34354637e-04     0.00000000e+00    
           2.15693330e-03     2.23936644e-04     0.00000000e+00    
           2.14632601e-03     2.11551742e-04     0.00000000e+00    
           2.14019278e-03     1.96978901e-04     0.00000000e+00    
           2.13984284e-03     1.80732517e-04     0.00000000e+00    
           2.14428408e-03     1.65506659e-04     0.00000000e+00    
           2.15263129e-03     1.53097164e-04     0.00000000e+00    
           2.16538529e-03     1.40530756e-04     0.00000000e+00    
           2.18224199e-03     1.28056781e-04     0.00000000e+00    
           2.20221770e-03     1.19268254e-04     0.00000000e+00    
           1.27427001e-03     1.56386050e-05     0.00000000e+00    
           1.27459446e-03    -9.36268771e-06     0.00000000e+00    
           1.28219498e-03    -3.60752747e-05     0.00000000e+00    
           1.29788870e-03    -6.23961896e-05     0.00000000e+00    
           1.32031133e-03    -8.56304614e-05     0.00000000e+00    
           1.34735031e-03    -1.02784055e-04     0.00000000e+00    
           1.37752353e-03    -1.13007787e-04     0.00000000e+00    
           1.43947185e-03    -1.12800270e-04     0.00000000e+00    
           1.46703853e-03    -1.02152771e-04     0.00000000e+00    
           1.49021368e-03    -8.53982856e-05     0.00000000e+00    
           1.50748563e-03    -6.35549222e-05     0.00000000e+00    
           1.51825231e-03    -3.86116153e-05     0.00000000e+00    
           1.52181578e-03    -1.25793704e-05     0.00000000e+00    
           1.51800644e-03     1.19288334e-05     0.00000000e+00    
           2.54115555e-03     5.80005144e-05     0.00000000e+00    
           2.51690391e-03     7.93384461e-05     0.00000000e+00    
           2.48720287e-03     9.55927244e-05     0.00000000e+00    
           2.45501567e-03     1.03739425e-04     0.00000000e+00    
           2.42264383e-03     1.03863546e-04     0.00000000e+00    
           2.39248271e-03     9.63770799e-05     0.00000000e+00    
           2.36640009e-03     8.19840425e-05     0.00000000e+00    
           2.34584021e-03     6.23927117e-05     0.00000000e+00    
           2.10561324e-03     9.31861505e-05     0.00000000e+00    
           2.05998053e-03     9.33445554e-05     0.00000000e+00    
           2.01596227e-03     8.35472165e-05     0.00000000e+00    
           1.97709934e-03     6.40541184e-05     0.00000000e+00    
           1.94551062e-03     3.62142273e-05     0.00000000e+00    
           1.92262139e-03     2.04290268e-06     0.00000000e+00    
           1.90949894e-03    -3.55103875e-05     0.00000000e+00    
           1.91268371e-03    -1.10192872e-04     0.00000000e+00    
           1.92903762e-03    -1.46417267e-04     0.00000000e+00    
           1.95667963e-03    -1.82338234e-04     0.00000000e+00    
           1.99370785e-03    -2.13553125e-04     0.00000000e+00    
           2.03675916e-03    -2.35831511e-04     0.00000000e+00    
           2.08118628e-03    -2.46562733e-04     0.00000000e+00    
           2.12514959e-03    -2.45879492e-04     0.00000000e+00    
           1.03866252e-04    -2.14432046e-04     0.00000000e+00    
           1.35457638e-04    -1.86453617e-04     0.00000000e+00    
           1.59142481e-04    -1.52974797e-04     0.00000000e+00    
           1.73858818e-04    -1.16920972e-04     0.00000000e+00    
           1.78015209e-04    -7.91934362e-05     0.00000000e+00    
           1.72177824e-04    -4.13429007e-05     0.00000000e+00    
           1.54863374e-04    -1.25175006e-06     0.00000000e+00    
           1.27018749e-04     3.53481846e-05     0.00000000e+00    
           9.11288444e-05     6.42968444e-05     0.00000000e+00    
           2.23657023e-03    -2.21477603e-04     0.00000000e+00    
           2.21603015e-03    -2.15048742e-04     0.00000000e+00    
           2.19540880e-03    -2.13571097e-04     0.00000000e+00    
           2.17589410e-03    -2.17443114e-04     0.00000000e+00    
           2.15872820e-03    -2.26156626e-04     0.00000000e+00    
           2.14521913e-03    -2.38069653e-04     0.00000000e+00    
           2.13560555e-03    -2.52275087e-04     0.00000000e+00    
           2.13006046e-03    -2.67352909e-04     0.00000000e+00    
           2.13546352e-03    -2.99018575e-04     0.00000000e+00    
           2.14627129e-03    -3.13209486e-04     0.00000000e+00    
           2.16043671e-03    -3.24461580e-04     0.00000000e+00    
           2.17672554e-03    -3.33836157e-04     0.00000000e+00    
           2.19483813e-03    -3.40076978e-04     0.00000000e+00    
           2.21384573e-03    -3.42278217e-04     0.00000000e+00    
           2.23255716e-03    -3.40322149e-04     0.00000000e+00    
           2.25003390e-03    -3.33996752e-04     0.00000000e+00    
           1.76628921e-04    -3.10708070e-04     0.00000000e+00    
           1.83949465e-04    -2.95605016e-04     0.00000000e+00    
           1.86639969e-04    -2.80111126e-04     0.00000000e+00    
           1.82360003e-04    -2.63540802e-04     0.00000000e+00    
           1.71929787e-04    -2.47183052e-04     0.00000000e+00    
           1.25976035e-03    -1.70605417e-05     0.00000000e+00    
           1.29455514e-03    -2.46081686e-06     0.00000000e+00    
           1.32333022e-03     1.93254782e-05     0.00000000e+00    
           1.34433876e-03     4.75203924e-05     0.00000000e+00    
           1.35645911e-03     7.91127386e-05     0.00000000e+00    
           1.35969312e-03     1.12408081e-04     0.00000000e+00    
           1.35366409e-03     1.44610851e-04     0.00000000e+00    
           1.33856828e-03     1.76338450e-04     0.00000000e+00    
           1.31394807e-03     2.05447272e-04     0.00000000e+00    
           1.28107273e-03     2.29126235e-04     0.00000000e+00    
           1.24343508e-03     2.44096140e-04     0.00000000e+00    
           1.16548478e-03     2.44305556e-04     0.00000000e+00    
           1.13004015e-03     2.30819263e-04     0.00000000e+00    
           1.10010442e-03     2.09631529e-04     0.00000000e+00    
           1.07746234e-03     1.82041913e-04     0.00000000e+00    
           1.06392510e-03     1.50039428e-04     0.00000000e+00    
           1.05978001e-03     1.15453782e-04     0.00000000e+00    
           1.06561685e-03     7.95157830e-05     0.00000000e+00    
           1.08414737e-03     4.40989170e-05     0.00000000e+00    
           1.11076108e-03     1.55839571e-05     0.00000000e+00    
           1.14365609e-03    -5.16837963e-06     0.00000000e+00    
           1.18120760e-03    -1.81430823e-05     0.00000000e+00    
           2.80309422e-03     1.88077793e-05     0.00000000e+00    
           2.82085431e-03     4.73013388e-05     0.00000000e+00    
           2.83082807e-03     7.94846346e-05     0.00000000e+00    
           2.83005624e-03     1.14830094e-04     0.00000000e+00    
           2.81811412e-03     1.50907683e-04     0.00000000e+00    
           2.79744738e-03     1.83440949e-04     0.00000000e+00    
           2.76935333e-03     2.09836231e-04     0.00000000e+00    
           2.73631676e-03     2.29639089e-04     0.00000000e+00    
           2.70015909e-03     2.41802147e-04     0.00000000e+00    
           2.62712128e-03     2.39374800e-04     0.00000000e+00    
           2.59433966e-03     2.25529642e-04     0.00000000e+00    
           2.56612198e-03     2.05234363e-04     0.00000000e+00    
           2.54357560e-03     1.79033290e-04     0.00000000e+00    
           2.52946117e-03     1.48591687e-04     0.00000000e+00    
           2.52480037e-03     1.16082156e-04     0.00000000e+00    
           2.52845208e-03     8.42263471e-05     0.00000000e+00    
           2.54029036e-03     5.56467057e-05     0.00000000e+00    
           2.55987933e-03     2.71812842e-05     0.00000000e+00    
           1.56878296e-03    -1.73031513e-05     0.00000000e+00    
           1.60221779e-03    -2.89260461e-05     0.00000000e+00    
           1.63657323e-03    -3.32742675e-05     0.00000000e+00    
           1.66998745e-03    -3.03398792e-05     0.00000000e+00    
           1.70097325e-03    -2.05546003e-05     0.00000000e+00    
           1.80119812e-03    -3.62856226e-04     0.00000000e+00    
           1.84150343e-03    -3.47262016e-04     0.00000000e+00    
           1.87684491e-03    -3.23395099e-04     0.00000000e+00    
           1.90411706e-03    -2.92633311e-04     0.00000000e+00    
           1.92271627e-03    -2.57474807e-04     0.00000000e+00    
           1.93115009e-03    -2.19983165e-04     0.00000000e+00    
           1.92926091e-03    -1.82938456e-04     0.00000000e+00    
           1.91841810e-03    -1.46891092e-04     0.00000000e+00    
           1.89683307e-03    -1.11087567e-04     0.00000000e+00    
           1.86456903e-03    -7.73214924e-05     0.00000000e+00    
           1.82489108e-03    -5.10778882e-05     0.00000000e+00    
           1.78089610e-03    -3.43726679e-05     0.00000000e+00    
           1.69088459e-03    -3.27877569e-05     0.00000000e+00    
           1.65008975e-03    -4.75227898e-05     0.00000000e+00    
           1.61517237e-03    -7.05326893e-05     0.00000000e+00    
           1.58770056e-03    -1.00938196e-04     0.00000000e+00    
           1.56900205e-03    -1.36649003e-04     0.00000000e+00    
           1.55976601e-03    -1.75337045e-04     0.00000000e+00    
           1.56088360e-03    -2.16110144e-04     0.00000000e+00    
           1.57436880e-03    -2.57006206e-04     0.00000000e+00    
           1.59854337e-03    -2.95031845e-04     0.00000000e+00    
           1.63145585e-03    -3.26930400e-04     0.00000000e+00    
           1.67045242e-03    -3.50332179e-04     0.00000000e+00    
           1.71310990e-03    -3.64431384e-04     0.00000000e+00    
           2.59239320e-03     1.29343083e-04     0.00000000e+00    
           2.61351373e-03     1.39206444e-04     0.00000000e+00    
           2.63057370e-03     1.54023306e-04     0.00000000e+00    
           2.64198938e-03     1.72796499e-04     0.00000000e+00    
           2.64658011e-03     1.93881759e-04     0.00000000e+00    
           2.64395238e-03     2.15836801e-04     0.00000000e+00    
           2.63354741e-03     2.36442153e-04     0.00000000e+00    
           2.61788722e-03     2.53328413e-04     0.00000000e+00    
           2.59763165e-03     2.66977353e-04     0.00000000e+00    
           2.57474836e-03     2.75640457e-04     0.00000000e+00    
           2.52642483e-03     2.75905884e-04     0.00000000e+00    
           2.50479230e-03     2.67166033e-04     0.00000000e+00    
           2.48696445e-03     2.53462960e-04     0.00000000e+00    
           2.47398554e-03     2.36591775e-04     0.00000000e+00    
           2.46788072e-03     2.16760833e-04     0.00000000e+00    
           2.46914383e-03     1.94613545e-04     0.00000000e+00    
           2.47953320e-03     1.71629290e-04     0.00000000e+00    
           2.49775220e-03     1.51779808e-04     0.00000000e+00    
           2.51922361e-03     1.37498209e-04     0.00000000e+00    
           2.54330738e-03     1.28409491e-04     0.00000000e+00    
           1.08264887e-03    -1.86240941e-04     0.00000000e+00    
           1.10465451e-03    -1.78272894e-04     0.00000000e+00    
           1.12328632e-03    -1.64718484e-04     0.00000000e+00    
           1.13701413e-03    -1.47022889e-04     0.00000000e+00    
           1.14484737e-03    -1.26770421e-04     0.00000000e+00    
           1.14682154e-03    -1.05515115e-04     0.00000000e+00    
           1.14238856e-03    -8.42576992e-05     0.00000000e+00    
           1.13042188e-03    -6.36449768e-05     0.00000000e+00    
           1.11262756e-03    -4.90873972e-05     0.00000000e+00    
           1.09190692e-03    -3.81476639e-05     0.00000000e+00    
           1.06764224e-03    -2.92774894e-05     0.00000000e+00    
           1.01761066e-03    -2.95408081e-05     0.00000000e+00    
           9.95674520e-04    -3.86535939e-05     0.00000000e+00    
           9.77581833e-04    -5.28137571e-05     0.00000000e+00    
           9.64418985e-04    -7.05825951e-05     0.00000000e+00    
           9.56824166e-04    -9.05042543e-05     0.00000000e+00    
           9.55339114e-04    -1.11481851e-04     0.00000000e+00    
           9.60922567e-04    -1.32329209e-04     0.00000000e+00    
           9.73039132e-04    -1.50995023e-04     0.00000000e+00    
           9.90106724e-04    -1.65626770e-04     0.00000000e+00    
           1.01017882e-03    -1.77947950e-04     0.00000000e+00    
           1.03359390e-03    -1.86009842e-04     0.00000000e+00    
           2.62688438e-04     1.29783381e-04     0.00000000e+00    
           2.39316505e-04     9.32363182e-05     0.00000000e+00    
           2.26277509e-04     5.24024072e-05     0.00000000e+00    
           2.24307034e-04     9.36073684e-06     0.00000000e+00    
           2.34313920e-04    -3.40588231e-05     0.00000000e+00    
           2.57983571e-04    -7.71592895e-05     0.00000000e+00    
           2.92599201e-04    -1.14765746e-04     0.00000000e+00    
           3.34505341e-04    -1.43196361e-04     0.00000000e+00    
           3.81372578e-04    -1.61652657e-04     0.00000000e+00    
           4.77576657e-04    -1.62345445e-04     0.00000000e+00    
           5.20913512e-04    -1.45941493e-04     0.00000000e+00    
           5.58237080e-04    -1.19776407e-04     0.00000000e+00    
           5.87733928e-04    -8.50722208e-05     0.00000000e+00    
           6.07136812e-04    -4.35492511e-05     0.00000000e+00    
           6.14471093e-04     2.12291752e-06     0.00000000e+00    
           6.09058829e-04     4.86984100e-05     0.00000000e+00    
           5.91393386e-04     9.30560855e-05     0.00000000e+00    
           5.62781177e-04     1.31686538e-04     0.00000000e+00    
           1.53159827e-03     1.84622564e-04     0.00000000e+00    
           1.48296717e-03     1.95960063e-04     0.00000000e+00    
           1.43331883e-03     1.96123437e-04     0.00000000e+00    
           1.38640648e-03     1.83677315e-04     0.00000000e+00    
           1.10554020e-03    -2.10862941e-04     0.00000000e+00    
           1.14514958e-03    -1.94757333e-04     0.00000000e+00    
           1.17771234e-03    -1.69439023e-04     0.00000000e+00    
           1.20133429e-03    -1.37469877e-04     0.00000000e+00    
           1.21577131e-03    -1.01370599e-04     0.00000000e+00    
           1.21968321e-03    -6.28862472e-05     0.00000000e+00    
           1.21239724e-03    -2.38361663e-05     0.00000000e+00    
           1.19306950e-03     1.45883569e-05     0.00000000e+00    
           1.16341154e-03     4.88006699e-05     0.00000000e+00    
           1.12753385e-03     7.45728466e-05     0.00000000e+00    
           1.08735799e-03     9.03790642e-05     0.00000000e+00    
           1.00185175e-03     9.17816869e-05     0.00000000e+00    
           9.61479149e-04     7.74269793e-05     0.00000000e+00    
           9.26510489e-04     5.37212327e-05     0.00000000e+00    
           8.99781939e-04     2.16251374e-05     0.00000000e+00    
           8.83217319e-04    -1.64155790e-05     0.00000000e+00    
           8.78320308e-04    -5.80206142e-05     0.00000000e+00    
           8.85786430e-04    -1.00296937e-04     0.00000000e+00    
           9.04879707e-04    -1.38718897e-04     0.00000000e+00    
           9.34508513e-04    -1.70857456e-04     0.00000000e+00    