<?xml version="1.0"?>
<VTKFile type="UnstructuredGrid" version="0.1">
  <UnstructuredGrid>
    <Piece NumberOfPoints="1034" NumberOfCells="1614">
      <Points>
        <DataArray type="Float32" NumberOfComponents="3">
           5.21582007e-01     5.11657000e-01     0.00000000e+00    
           5.07319987e-01     5.11657000e-01     0.00000000e+00    
           4.65243995e-01     5.17907977e-01     0.00000000e+00    
           4.65243995e-01     5.04921973e-01     0.00000000e+00    
           4.75246996e-01     5.11415005e-01     0.00000000e+00    
           5.33852994e-01     5.04921973e-01     0.00000000e+00    
           5.33852994e-01     5.17907977e-01     0.00000000e+00    
           4.83779997e-01     5.34618974e-01     0.00000000e+00    
           4.68984991e-01     5.34618974e-01     0.00000000e+00    
           4.76381987e-01     5.23841977e-01     0.00000000e+00    
           4.68984991e-01     4.66010004e-01     0.00000000e+00    
           4.83779997e-01     4.66010004e-01     0.00000000e+00    
           4.99920011e-01     5.34618974e-01     0.00000000e+00    
           4.89203990e-01     5.34618974e-01     0.00000000e+00    
           4.94562000e-01     5.22280991e-01     0.00000000e+00    
           4.89203990e-01     4.66010004e-01     0.00000000e+00    
           4.99920011e-01     4.66010004e-01     0.00000000e+00    
           5.32517016e-01     4.74112004e-01     0.00000000e+00    
           5.17961025e-01     4.74112004e-01     0.00000000e+00    
           5.33852994e-01     5.19801974e-01     0.00000000e+00    
           5.33852994e-01     5.29603004e-01     0.00000000e+00    
           5.19536972e-01     5.24702013e-01     0.00000000e+00    
           4.65243995e-01     5.29603004e-01     0.00000000e+00    
           4.65243995e-01     5.19801974e-01     0.00000000e+00    
           4.92487997e-01     5.17117977e-01     0.00000000e+00    
           4.76904988e-01     5.17117977e-01     0.00000000e+00    
           5.17996013e-01     5.27033985e-01     0.00000000e+00    
           5.04473984e-01     5.27033985e-01     0.00000000e+00    
           5.08446991e-01     4.83435005e-01     0.00000000e+00    
           4.94414002e-01     4.83435005e-01     0.00000000e+00    
           4.65243995e-01     4.83101994e-01     0.00000000e+00    
           4.65243995e-01     4.74415004e-01     0.00000000e+00    
           4.78336990e-01     4.78758007e-01     0.00000000e+00    
           5.33852994e-01     4.74415004e-01     0.00000000e+00    
           5.33852994e-01     4.83101994e-01     0.00000000e+00    
           4.80668008e-01     4.95810986e-01     0.00000000e+00    
           4.66084987e-01     4.95810986e-01     0.00000000e+00    
           4.93930012e-01     4.79214013e-01     0.00000000e+00    
           4.78967011e-01     4.79214013e-01     0.00000000e+00    
           5.09284973e-01     4.97658014e-01     0.00000000e+00    
           4.95503992e-01     4.97658014e-01     0.00000000e+00    
           5.33011973e-01     5.01751006e-01     0.00000000e+00    
           5.17829001e-01     5.01751006e-01     0.00000000e+00    
           4.95451003e-01     5.00564992e-01     0.00000000e+00    
           4.80922014e-01     5.00564992e-01     0.00000000e+00    
           5.25367022e-01     4.88312006e-01     0.00000000e+00    
           5.09521008e-01     4.88312006e-01     0.00000000e+00    
           4.65243995e-01     5.34618974e-01     0.00000000e+00    
           4.65243995e-01     4.66010004e-01     0.00000000e+00    
           5.33852994e-01     4.66010004e-01     0.00000000e+00    
           5.33852994e-01     5.34618974e-01     0.00000000e+00    
           5.21338999e-01     5.13502657e-01     0.00000000e+00    
           5.20626605e-01     5.15222490e-01     0.00000000e+00    
           5.19493401e-01     5.16699374e-01     0.00000000e+00    
           5.18016517e-01     5.17832637e-01     0.00000000e+00    
           5.16296625e-01     5.18545032e-01     0.00000000e+00    
           5.14451027e-01     5.18787980e-01     0.00000000e+00    
           5.12605369e-01     5.18545032e-01     0.00000000e+00    
           5.10885477e-01     5.17832637e-01     0.00000000e+00    
           5.09408593e-01     5.16699374e-01     0.00000000e+00    
           5.08275390e-01     5.15222490e-01     0.00000000e+00    
           5.07562995e-01     5.13502657e-01     0.00000000e+00    
           5.07562995e-01     5.09811342e-01     0.00000000e+00    
           5.08275390e-01     5.08091509e-01     0.00000000e+00    
           5.09408593e-01     5.06614625e-01     0.00000000e+00    
           5.10885477e-01     5.05481362e-01     0.00000000e+00    
           5.12605369e-01     5.04768968e-01     0.00000000e+00    
           5.14451027e-01     5.04526019e-01     0.00000000e+00    
           5.16296625e-01     5.04768968e-01     0.00000000e+00    
           5.18016517e-01     5.05481362e-01     0.00000000e+00    
           5.19493401e-01     5.06614625e-01     0.00000000e+00    
           5.20626605e-01     5.08091509e-01     0.00000000e+00    
           5.21338999e-01     5.09811342e-01     0.00000000e+00    
           4.66931671e-01     5.04409373e-01     0.00000000e+00    
           4.68693614e-01     5.04328012e-01     0.00000000e+00    
           4.70421344e-01     5.04682958e-01     0.00000000e+00    
           4.72008497e-01     5.05452335e-01     0.00000000e+00    
           4.73357379e-01     5.06588817e-01     0.00000000e+00    
           4.74384934e-01     5.08022368e-01     0.00000000e+00    
           4.75027919e-01     5.09664834e-01     0.00000000e+00    
           4.75028187e-01     5.13165236e-01     0.00000000e+00    
           4.74385172e-01     5.14807761e-01     0.00000000e+00    
           4.73357558e-01     5.16241372e-01     0.00000000e+00    
           4.72008646e-01     5.17377913e-01     0.00000000e+00    
           4.70421433e-01     5.18147290e-01     0.00000000e+00    
           4.68693614e-01     5.18502235e-01     0.00000000e+00    
           4.66931641e-01     5.18420875e-01     0.00000000e+00    
           5.32303810e-01     5.16964078e-01     0.00000000e+00    
           5.31043947e-01     5.15658796e-01     0.00000000e+00    
           5.30155540e-01     5.14077127e-01     0.00000000e+00    
           5.29696345e-01     5.12322068e-01     0.00000000e+00    
           5.29696345e-01     5.10507941e-01     0.00000000e+00    
           5.30155540e-01     5.08752882e-01     0.00000000e+00    
           5.31043947e-01     5.07171214e-01     0.00000000e+00    
           5.32303810e-01     5.05865932e-01     0.00000000e+00    
           4.68517244e-01     5.32760799e-01     0.00000000e+00    
           4.68509018e-01     5.30844629e-01     0.00000000e+00    
           4.68960851e-01     5.28982460e-01     0.00000000e+00    
           4.69846308e-01     5.27283132e-01     0.00000000e+00    
           4.71113682e-01     5.25845945e-01     0.00000000e+00    
           4.72688884e-01     5.24754822e-01     0.00000000e+00    
           4.74479854e-01     5.24073541e-01     0.00000000e+00    
           4.78284091e-01     5.24073601e-01     0.00000000e+00    
           4.80075032e-01     5.24754822e-01     0.00000000e+00    
           4.81650203e-01     5.25845885e-01     0.00000000e+00    
           4.82917547e-01     5.27283013e-01     0.00000000e+00    
           4.83803004e-01     5.28982282e-01     0.00000000e+00    
           4.84254897e-01     5.30844331e-01     0.00000000e+00    
           4.84246761e-01     5.32760441e-01     0.00000000e+00    
           4.82887864e-01     4.67691004e-01     0.00000000e+00    
           4.81620818e-01     4.69110936e-01     0.00000000e+00    
           4.80051905e-01     4.70188022e-01     0.00000000e+00    
           4.78271484e-01     4.70860153e-01     0.00000000e+00    
           4.76382166e-01     4.71088618e-01     0.00000000e+00    
           4.74492878e-01     4.70860243e-01     0.00000000e+00    
           4.72712427e-01     4.70188200e-01     0.00000000e+00    
           4.71143454e-01     4.69111174e-01     0.00000000e+00    
           4.69876349e-01     4.67691302e-01     0.00000000e+00    
           4.88103986e-01     5.33086061e-01     0.00000000e+00    
           4.87431526e-01     5.31323195e-01     0.00000000e+00    
           4.87231195e-01     5.29447019e-01     0.00000000e+00    
           4.87516224e-01     5.27581930e-01     0.00000000e+00    
           4.88267750e-01     5.25851250e-01     0.00000000e+00    
           4.89436030e-01     5.24369657e-01     0.00000000e+00    
           4.90943670e-01     5.23235261e-01     0.00000000e+00    
           4.92690891e-01     5.22523046e-01     0.00000000e+00    
           4.96432930e-01     5.22523701e-01     0.00000000e+00    
           4.98180002e-01     5.23235798e-01     0.00000000e+00    
           4.99687493e-01     5.24370134e-01     0.00000000e+00    
           5.00855684e-01     5.25851607e-01     0.00000000e+00    
           5.01607120e-01     5.27582109e-01     0.00000000e+00    
           5.01892149e-01     5.29447079e-01     0.00000000e+00    
           5.01691818e-01     5.31323016e-01     0.00000000e+00    
           5.01019418e-01     5.33085763e-01     0.00000000e+00    
           4.98371124e-01     4.67269689e-01     0.00000000e+00    
           4.96539861e-01     4.68064904e-01     0.00000000e+00    
           4.94562000e-01     4.68336672e-01     0.00000000e+00    
           4.92584139e-01     4.68064904e-01     0.00000000e+00    
           4.90752876e-01     4.67269689e-01     0.00000000e+00    
           5.32269001e-01     4.75995690e-01     0.00000000e+00    
           5.31541944e-01     4.77750987e-01     0.00000000e+00    
           5.30385315e-01     4.79258329e-01     0.00000000e+00    
           5.28877974e-01     4.80414927e-01     0.00000000e+00    
[...]
      <PointData>
        <DataArray type="Float32" Name="Displacement" NumberOfComponents="3">
           1.89951609e-03     8.33018785e-05     0.00000000e+00    
           1.88413495e-03     1.84804638e-04     0.00000000e+00    
           1.29047257e-03     3.19927349e-05     0.00000000e+00    
           1.10671902e-03     3.72480426e-05     0.00000000e+00    
           1.21248362e-03    -8.53064194e-05     0.00000000e+00    
           2.00671912e-03     3.72480426e-05     0.00000000e+00    
           2.19047256e-03     3.19927349e-05     0.00000000e+00    
           1.86383841e-03    -1.73096181e-04     0.00000000e+00    
           1.84826669e-03     8.91838790e-05     0.00000000e+00    
           1.64492428e-03    -3.97214098e-05     0.00000000e+00    
           4.82666728e-05     8.91838790e-05     0.00000000e+00    
           6.38384445e-05    -1.73096181e-04     0.00000000e+00    
           1.96057837e-03    -2.32876540e-04     0.00000000e+00    
           1.95096433e-03    -1.57484479e-04     0.00000000e+00    
           1.84507517e-03    -1.99736794e-04     0.00000000e+00    
           1.50964348e-04    -1.57484479e-04     0.00000000e+00    
           1.60578391e-04    -2.32876540e-04     0.00000000e+00    
           1.04706699e-03    -2.24283394e-05     0.00000000e+00    
           1.03049760e-03     2.02449126e-04     0.00000000e+00    
           2.21651886e-03     3.47023274e-07     0.00000000e+00    
           2.37635616e-03    -5.77190440e-06     0.00000000e+00    
           2.27666809e-03     2.00196373e-04     0.00000000e+00    
           1.47635618e-03    -5.77190440e-06     0.00000000e+00    
           1.31651899e-03     3.47023274e-07     0.00000000e+00    
           1.52199843e-03    -2.73875601e-04     0.00000000e+00    
           1.50037732e-03     4.91822539e-06     0.00000000e+00    
           2.18794099e-03     8.93837641e-05     0.00000000e+00    
           2.16996903e-03     2.09021993e-04     0.00000000e+00    
           9.25579749e-04    -1.36860413e-04     0.00000000e+00    
           9.09229275e-04     1.68053084e-05     0.00000000e+00    
           4.55923291e-04     1.51083936e-04     0.00000000e+00    
           2.61637295e-04     1.49409214e-04     0.00000000e+00    
           3.77904857e-04    -1.23778445e-04     0.00000000e+00    
           1.16163725e-03     1.49409214e-04     0.00000000e+00    
           1.35592325e-03     1.51083936e-04     0.00000000e+00    
           9.23300860e-04    -1.62005017e-04     0.00000000e+00    
           9.06860339e-04     9.29143207e-05     0.00000000e+00    
           5.35511179e-04    -3.03120643e-04     0.00000000e+00    
           5.13856765e-04    -8.37056996e-06     0.00000000e+00    
           1.23651477e-03    -6.19998755e-05     0.00000000e+00    
           1.22455531e-03    -1.02127478e-05     0.00000000e+00    
           1.81433617e-03    -1.22472366e-05     0.00000000e+00    
           1.79980940e-03     1.41090364e-04     0.00000000e+00    
           1.13406614e-03    -2.65422685e-04     0.00000000e+00    
           1.11725775e-03    -7.77769746e-05     0.00000000e+00    
           1.27298397e-03     7.44316276e-05     0.00000000e+00    
           1.25594519e-03     2.68449861e-04     0.00000000e+00    
           1.79999997e-03     0.00000000e+00     0.00000000e+00    
           0.00000000e+00     0.00000000e+00     0.00000000e+00    
           8.99999985e-04     0.00000000e+00     0.00000000e+00    
           2.70000007e-03     0.00000000e+00     0.00000000e+00    
           1.91720633e-03     8.52018929e-05     0.00000000e+00    
           1.93253451e-03     9.09775335e-05     0.00000000e+00    
           1.94498012e-03     9.92497953e-05     0.00000000e+00    
           1.95393828e-03     1.09273460e-04     0.00000000e+00    
           1.95901399e-03     1.20640856e-04     0.00000000e+00    
           1.96025218e-03     1.32700035e-04     0.00000000e+00    
           1.95674063e-03     1.46787759e-04     0.00000000e+00    
           1.94739574e-03     1.61114382e-04     0.00000000e+00    
           1.93293765e-03     1.72926157e-04     0.00000000e+00    
           1.91723509e-03     1.80103540e-04     0.00000000e+00    
           1.90088619e-03     1.84085875e-04     0.00000000e+00    
           1.86807383e-03     1.81865311e-04     0.00000000e+00    
           1.85388315e-03     1.75972265e-04     0.00000000e+00    
           1.84241810e-03     1.67736376e-04     0.00000000e+00    
           1.83394528e-03     1.58052557e-04     0.00000000e+00    
           1.82921987e-03     1.46651699e-04     0.00000000e+00    
           1.82940566e-03     1.33920868e-04     0.00000000e+00    
           1.83345878e-03     1.22222191e-04     0.00000000e+00    
           1.84046128e-03     1.13050257e-04     0.00000000e+00    
           1.85087917e-03     1.03474566e-04     0.00000000e+00    
           1.86466309e-03     9.33203264e-05     0.00000000e+00    
           1.88121863e-03     8.58661078e-05     0.00000000e+00    
           1.10152189e-03     1.87168207e-05     0.00000000e+00    
           1.10213214e-03    -4.36839002e-07     0.00000000e+00    
           1.10851286e-03    -2.13454186e-05     0.00000000e+00    
           1.12153369e-03    -4.22725825e-05     0.00000000e+00    
           1.14002742e-03    -6.09121926e-05     0.00000000e+00    
           1.16220652e-03    -7.46056685e-05     0.00000000e+00    
           1.18687761e-03    -8.26834366e-05     0.00000000e+00    
           1.23726763e-03    -8.25045790e-05     0.00000000e+00    
           1.25940028e-03    -7.40588512e-05     0.00000000e+00    
           1.27782777e-03    -6.08063674e-05     0.00000000e+00    
           1.29130878e-03    -4.35405855e-05     0.00000000e+00    
           1.29956636e-03    -2.39615056e-05     0.00000000e+00    
           1.30208209e-03    -3.73073590e-06     0.00000000e+00    
           1.29871210e-03     1.50153328e-05     0.00000000e+00    
           2.17683171e-03     5.07354052e-05     0.00000000e+00    
           2.15694890e-03     6.79048972e-05     0.00000000e+00    
           2.13255244e-03     8.10981073e-05     0.00000000e+00    
           2.10617878e-03     8.76045524e-05     0.00000000e+00    
           2.07974925e-03     8.76081904e-05     0.00000000e+00    
           2.05531809e-03     8.15755484e-05     0.00000000e+00    
           2.03443691e-03     7.00847813e-05     0.00000000e+00    
           2.01820675e-03     5.46429073e-05     0.00000000e+00    
           1.81041600e-03     9.70151596e-05     0.00000000e+00    
           1.77200709e-03     9.70932306e-05     0.00000000e+00    
           1.73507479e-03     8.89776638e-05     0.00000000e+00    
           1.70269061e-03     7.28726009e-05     0.00000000e+00    
           1.67658122e-03     4.98649897e-05     0.00000000e+00    
           1.65788666e-03     2.17035958e-05     0.00000000e+00    
           1.64735911e-03    -8.99459519e-06     0.00000000e+00    
           1.65045564e-03    -6.93914408e-05     0.00000000e+00    
           1.66417006e-03    -9.89353430e-05     0.00000000e+00    
           1.68754498e-03    -1.28786720e-04     0.00000000e+00    
           1.71897374e-03    -1.55039699e-04     0.00000000e+00    
           1.75544759e-03    -1.73838460e-04     0.00000000e+00    
           1.79272797e-03    -1.82850636e-04     0.00000000e+00    
           1.82943826e-03    -1.82322634e-04     0.00000000e+00    
           9.50535759e-05    -1.56268507e-04     0.00000000e+00    
           1.21369638e-04    -1.33132853e-04     0.00000000e+00    
           1.41064258e-04    -1.05601888e-04     0.00000000e+00    
           1.53264118e-04    -7.62308409e-05     0.00000000e+00    
           1.56600479e-04    -4.55696172e-05     0.00000000e+00    
           1.51693777e-04    -1.47727114e-05     0.00000000e+00    
           1.36960647e-04     1.85282624e-05     0.00000000e+00    
           1.13225018e-04     4.91235915e-05     0.00000000e+00    
           8.26994510e-05     7.32585831e-05     0.00000000e+00    
           1.93479587e-03    -1.48495295e-04     0.00000000e+00    
           1.91719958e-03    -1.43234254e-04     0.00000000e+00    
           1.89964997e-03    -1.42105913e-04     0.00000000e+00    
           1.88313308e-03    -1.45466198e-04     0.00000000e+00    
           1.86854356e-03    -1.52962879e-04     0.00000000e+00    
           1.85722287e-03    -1.62986791e-04     0.00000000e+00    
           1.84930931e-03    -1.74757355e-04     0.00000000e+00    
           1.84482080e-03    -1.87008001e-04     0.00000000e+00    
           1.85009686e-03    -2.12604195e-04     0.00000000e+00    
           1.85964059e-03    -2.23979150e-04     0.00000000e+00    
           1.87201519e-03    -2.32996055e-04     0.00000000e+00    
           1.88604661e-03    -2.40622336e-04     0.00000000e+00    
           1.90149597e-03    -2.45799602e-04     0.00000000e+00    
           1.91765022e-03    -2.47674267e-04     0.00000000e+00    
           1.93347142e-03    -2.46146083e-04     0.00000000e+00    
           1.94818014e-03    -2.40949972e-04     0.00000000e+00    
           1.70461179e-04    -2.21813330e-04     0.00000000e+00    
           1.76542366e-04    -2.09501595e-04     0.00000000e+00    
           1.78696486e-04    -1.96923749e-04     0.00000000e+00    
           1.74784742e-04    -1.83293829e-04     0.00000000e+00    
           1.65475678e-04    -1.69786028e-04     0.00000000e+00    
           1.07975886e-03    -1.80015031e-05     0.00000000e+00    
           1.10892567e-03    -5.73559555e-06     0.00000000e+00    
           1.13286870e-03     1.22854462e-05     0.00000000e+00    
           1.15012750e-03     3.55436896e-05     0.00000000e+00    
           1.15997752e-03     6.14743476e-05     0.00000000e+00    
           1.16251584e-03     8.87741116e-05     0.00000000e+00    
           1.15736912e-03     1.15100476e-04     0.00000000e+00    
           1.14464096e-03     1.41332974e-04     0.00000000e+00    
           1.12377363e-03     1.65716949e-04     0.00000000e+00    
           1.09578727e-03     1.85747092e-04     0.00000000e+00    
           1.06379320e-03     1.98436421e-04     0.00000000e+00    
           9.97772673e-04     1.98703550e-04     0.00000000e+00    
           9.67828906e-04     1.87493977e-04     0.00000000e+00    
           9.42633953e-04     1.69955325e-04     0.00000000e+00    
           9.23651678e-04     1.47150888e-04     0.00000000e+00    
           9.12411429e-04     1.20727382e-04     0.00000000e+00    
           9.09043185e-04     9.21211104e-05     0.00000000e+00    
           9.14154050e-04     6.21280342e-05     0.00000000e+00    
           9.30248876e-04     3.23951208e-05     0.00000000e+00    
           9.53139039e-04     8.60653654e-06     0.00000000e+00    
           9.81250545e-04    -8.51129425e-06     0.00000000e+00    
           1.01322273e-03    -1.91279978e-05     0.00000000e+00    
           2.39703548e-03     1.36717772e-05     0.00000000e+00    
           2.41169706e-03     3.69241679e-05     0.00000000e+00    
           2.41992343e-03     6.33300733e-05     0.00000000e+00    
           2.41899001e-03     9.25544446e-05     0.00000000e+00    
           2.40844395e-03     1.22680620e-04     0.00000000e+00    
           2.39048968e-03     1.49763087e-04     0.00000000e+00    
           2.36633304e-03     1.71556807e-04     0.00000000e+00    
           2.33821711e-03     1.87809521e-04     0.00000000e+00    
           2.30773678e-03     1.97714340e-04     0.00000000e+00    
           2.24683597e-03     1.95368339e-04     0.00000000e+00    
           2.21967231e-03     1.83781012e-04     0.00000000e+00    
           2.19627633e-03     1.66998085e-04     0.00000000e+00    
           2.17768410e-03     1.45466256e-04     0.00000000e+00    
           2.16628867e-03     1.20557641e-04     0.00000000e+00    
           2.16283184e-03     9.40790196e-05     0.00000000e+00    
           2.16612569e-03     6.82364553e-05     0.00000000e+00    
           2.17608921e-03     4.52252025e-05     0.00000000e+00    
           2.19247933e-03     2.19440535e-05     0.00000000e+00    
           1.34235900e-03    -1.52156445e-05     0.00000000e+00    
           1.37068075e-03    -2.49815712e-05     0.00000000e+00    
           1.39968644e-03    -2.86983068e-05     0.00000000e+00    
           1.42779527e-03    -2.63790043e-05     0.00000000e+00    
           1.45372702e-03    -1.84147575e-05     0.00000000e+00    
           1.55842432e-03    -2.68884789e-04     0.00000000e+00    
           1.59188383e-03    -2.55865598e-04     0.00000000e+00    
           1.62120978e-03    -2.36194493e-04     0.00000000e+00    
           1.64360949e-03    -2.10969549e-04     0.00000000e+00    
           1.65879552e-03    -1.82415359e-04     0.00000000e+00    
           1.66545517e-03    -1.52160093e-04     0.00000000e+00    
           1.66354293e-03    -1.22512603e-04     0.00000000e+00    
           1.65447546e-03    -9.35191856e-05     0.00000000e+00    
           1.63635379e-03    -6.42265222e-05     0.00000000e+00    
           1.60912971e-03    -3.61276070e-05     0.00000000e+00    
           1.57565007e-03    -1.42207364e-05     0.00000000e+00    
           1.53864198e-03    -2.84910811e-07     0.00000000e+00    
           1.46334758e-03     1.25604674e-06     0.00000000e+00    
           1.42949610e-03    -1.07932510e-05     0.00000000e+00    
           1.40070997e-03    -2.95103746e-05     0.00000000e+00    
           1.37821445e-03    -5.43202914e-05     0.00000000e+00    
           1.36293145e-03    -8.34349630e-05     0.00000000e+00    
           1.35539309e-03    -1.14953378e-04     0.00000000e+00    
           1.35642732e-03    -1.48317078e-04     0.00000000e+00    
           1.36792171e-03    -1.81958152e-04     0.00000000e+00    
           1.38843723e-03    -2.13368621e-04     0.00000000e+00    
           1.41623663e-03    -2.39727538e-04     0.00000000e+00    
           1.44905504e-03    -2.58955668e-04     0.00000000e+00    
           1.48483727e-03    -2.70465331e-04     0.00000000e+00    
           2.20706081e-03     9.25480999e-05     0.00000000e+00    
           2.22374545e-03     1.00359655e-04     0.00000000e+00    
           2.23720632e-03     1.11968162e-04     0.00000000e+00    
           2.24608602e-03     1.26602899e-04     0.00000000e+00    
           2.24937988e-03     1.42984311e-04     0.00000000e+00    
           2.24680221e-03     1.60059222e-04     0.00000000e+00    
           2.23784870e-03     1.76070782e-04     0.00000000e+00    
           2.22473638e-03     1.89109196e-04     0.00000000e+00    
           2.20810412e-03     1.99711096e-04     0.00000000e+00    
           2.18955963e-03     2.06446930e-04     0.00000000e+00    
           2.15085666e-03     2.06833429e-04     0.00000000e+00    
           2.13364325e-03     2.00145849e-04     0.00000000e+00    
           2.11949809e-03     1.89687897e-04     0.00000000e+00    
           2.10913247e-03     1.76882269e-04     0.00000000e+00    
           2.10436550e-03     1.61574819e-04     0.00000000e+00    
           2.10559834e-03     1.44153557e-04     0.00000000e+00    
           2.11453554e-03     1.25724895e-04     0.00000000e+00    
           2.13006372e-03     1.09862405e-04     0.00000000e+00    
           2.14792043e-03     9.86703308e-05     0.00000000e+00    
           2.16763164e-03     9.16442295e-05     0.00000000e+00    
           9.48669855e-04    -1.34000642e-04     0.00000000e+00    
           9.69545974e-04    -1.26488900e-04     0.00000000e+00    
           9.87135572e-04    -1.13688671e-04     0.00000000e+00    
           1.00007700e-03    -9.70134643e-05     0.00000000e+00    
           1.00741792e-03    -7.79538095e-05     0.00000000e+00    
           1.00923760e-03    -5.81007844e-05     0.00000000e+00    
           1.00499787e-03    -3.82806211e-05     0.00000000e+00    
           9.93582071e-04    -1.89395614e-05     0.00000000e+00    
           9.76579962e-04    -5.10160635e-06     0.00000000e+00    
           9.56778589e-04     5.34895753e-06     0.00000000e+00    
           9.33564152e-04     1.38323148e-05     0.00000000e+00    
           8.85844755e-04     1.37161605e-05     0.00000000e+00    
           8.65014968e-04     5.17550779e-06     0.00000000e+00    
           8.47860647e-04    -8.11314658e-06     0.00000000e+00    
           8.35379411e-04    -2.47936059e-05     0.00000000e+00    
           8.28232151e-04    -4.35399270e-05     0.00000000e+00    
           8.26950883e-04    -6.33686577e-05     0.00000000e+00    
           8.32392892e-04    -8.30231147e-05     0.00000000e+00    
           8.44029593e-04    -1.00636571e-04     0.00000000e+00    
           8.60353874e-04    -1.14473914e-04     0.00000000e+00    
           8.79485684e-04    -1.26079365e-04     0.00000000e+00    
           9.01880732e-04    -1.33738155e-04     0.00000000e+00    
           2.34512307e-04     1.23946258e-04     0.00000000e+00    
           2.15113701e-04     9.39217425e-05     0.00000000e+00    
           2.04291835e-04     6.03318040e-05     0.00000000e+00    
           2.02661977e-04     2.48243214e-05     0.00000000e+00    
           2.11160848e-04    -1.12061180e-05     0.00000000e+00    
           2.31532467e-04    -4.74386397e-05     0.00000000e+00    
           2.61286419e-04    -7.91335988e-05     0.00000000e+00    
           2.97030667e-04    -1.02951606e-04     0.00000000e+00    
           3.36782396e-04    -1.18511889e-04     0.00000000e+00    
           4.17761563e-04    -1.19140008e-04     0.00000000e+00    
           4.53907996e-04    -1.05545274e-04     0.00000000e+00    
           4.84947668e-04    -8.39335917e-05     0.00000000e+00    
           5.09549631e-04    -5.51716475e-05     0.00000000e+00    
           5.25770884e-04    -2.05967044e-05     0.00000000e+00    
           5.31759986e-04     1.75064815e-05     0.00000000e+00    
           5.26925025e-04     5.63883114e-05     0.00000000e+00    
           5.11724444e-04     9.34025447e-05     0.00000000e+00    
           4.87243669e-04     1.25555307e-04     0.00000000e+00    
           1.31835090e-03     1.69390376e-04     0.00000000e+00    
           1.27724570e-03     1.78723611e-04     0.00000000e+00    
           1.23536726e-03     1.78938571e-04     0.00000000e+00    
           1.19598117e-03     1.68529994e-04     0.00000000e+00    
           9.59992001e-04    -1.57686518e-04     0.00000000e+00    
           9.92583460e-04    -1.44528763e-04     0.00000000e+00    
           1.01908564e-03    -1.23913560e-04     0.00000000e+00    
           1.03812816e-03    -9.80052573e-05     0.00000000e+00    
           1.04976469e-03    -6.88619111e-05     0.00000000e+00    
           1.05277065e-03    -3.77661854e-05     0.00000000e+00    
           1.04655197e-03    -6.07829088e-06     0.00000000e+00    
           1.03025057e-03     2.54270890e-05     0.00000000e+00    
           1.00530125e-03     5.36640800e-05     0.00000000e+00    
           9.75423958e-04     7.48814200e-05     0.00000000e+00    
           9.42142215e-04     8.78991268e-05     0.00000000e+00    
           8.71405937e-04     8.93734905e-05     0.00000000e+00    
           8.37979664e-04     7.78538451e-05     0.00000000e+00    
           8.09013436e-04     5.86841270e-05     0.00000000e+00    
           7.86926248e-04     3.24997309e-05     0.00000000e+00    
           7.73277658e-04     1.33250228e-06     0.00000000e+00    
           7.69388047e-04    -3.28505594e-05     0.00000000e+00    
           7.75859226e-04    -6.76206255e-05     0.00000000e+00    
           7.92028091e-04    -9.90390763e-05     0.00000000e+00    
           8.17009946e-04    -1.25239763e-04     0.00000000e+00    