<?xml version="1.0"?>
<VTKFile type="UnstructuredGrid" version="0.1">
  <UnstructuredGrid>
    <Piece NumberOfPoints="1034" NumberOfCells="1614">
      <Points>
        <DataArray type="Float32" NumberOfComponents="3">
           5.21582007e-01     5.11657000e-01     0.00000000e+00    
           5.07319987e-01     5.11657000e-01     0.00000000e+00    
           4.65243995e-01     5.17907977e-01     0.00000000e+00    
           4.65243995e-01     5.04921973e-01     0.00000000e+00    
           4.75246996e-01     5.11415005e-01     0.00000000e+00    
           5.33852994e-01     5.04921973e-01     0.00000000e+00    
           5.33852994e-01     5.17907977e-01     0.00000000e+00    
           4.83779997e-01     5.34618974e-01     0.00000000e+00    
           4.68984991e-01     5.34618974e-01     0.00000000e+00    
           4.76381987e-01     5.23841977e-01     0.00000000e+00    
           4.68984991e-01     4.66010004e-01     0.00000000e+00    
           4.83779997e-01     4.66010004e-01     0.00000000e+00    
           4.99920011e-01     5.34618974e-01     0.00000000e+00    
           4.89203990e-01     5.34618974e-01     0.00000000e+00    
           4.94562000e-01     5.22280991e-01     0.00000000e+00    
           4.89203990e-01     4.66010004e-01     0.00000000e+00    
           4.99920011e-01     4.66010004e-01     0.00000000e+00    
           5.32517016e-01     4.74112004e-01     0.00000000e+00    
           5.17961025e-01     4.74112004e-01     0.00000000e+00    
           5.33852994e-01     5.19801974e-01     0.00000000e+00    
           5.33852994e-01     5.29603004e-01     0.00000000e+00    
           5.19536972e-01     5.24702013e-01     0.00000000e+00    
           4.65243995e-01     5.29603004e-01     0.00000000e+00    
           4.65243995e-01     5.19801974e-01     0.00000000e+00    
           4.92487997e-01     5.17117977e-01     0.00000000e+00    
           4.76904988e-01     5.17117977e-01     0.00000000e+00    
           5.17996013e-01     5.27033985e-01     0.00000000e+00    
           5.04473984e-01     5.27033985e-01     0.00000000e+00    
           5.08446991e-01     4.83435005e-01     0.00000000e+00    
           4.94414002e-01     4.83435005e-01     0.00000000e+00    
           4.65243995e-01     4.83101994e-01     0.00000000e+00    
           4.65243995e-01     4.74415004e-01     0.00000000e+00    
           4.78336990e-01     4.78758007e-01     0.00000000e+00    
           5.33852994e-01     4.74415004e-01     0.00000000e+00    
           5.33852994e-01     4.83101994e-01     0.00000000e+00    
           4.80668008e-01     4.95810986e-01     0.00000000e+00    
           4.66084987e-01     4.95810986e-01     0.00000000e+00    
           4.93930012e-01     4.79214013e-01     0.00000000e+00    
           4.78967011e-01     4.79214013e-01     0.00000000e+00    
           5.09284973e-01     4.97658014e-01     0.00000000e+00    
           4.95503992e-01     4.97658014e-01     0.00000000e+00    
           5.33011973e-01     5.01751006e-01     0.00000000e+00    
           5.17829001e-01     5.01751006e-01     0.00000000e+00    
           4.95451003e-01     5.00564992e-01     0.00000000e+00    
           4.80922014e-01     5.00564992e-01     0.00000000e+00    
           5.25367022e-01     4.88312006e-01     0.00000000e+00    
           5.09521008e-01     4.88312006e-01     0.00000000e+00    
           4.65243995e-01     5.34618974e-01     0.00000000e+00    
           4.65243995e-01     4.66010004e-01     0.00000000e+00    
           5.33852994e-01     4.66010004e-01     0.00000000e+00    
           5.33852994e-01     5.34618974e-01     0.00000000e+00    
           5.21338999e-01     5.13502657e-01     0.00000000e+00    
           5.20626605e-01     5.15222490e-01     0.00000000e+00    
           5.19493401e-01     5.16699374e-01     0.00000000e+00    
           5.18016517e-01     5.17832637e-01     0.00000000e+00    
           5.16296625e-01     5.18545032e-01     0.00000000e+00    
           5.14451027e-01     5.18787980e-01     0.00000000e+00    
           5.12605369e-01     5.18545032e-01     0.00000000e+00    
           5.10885477e-01     5.17832637e-01     0.00000000e+00    
           5.09408593e-01     5.16699374e-01     0.00000000e+00    
           5.08275390e-01     5.15222490e-01     0.00000000e+00    
           5.07562995e-01     5.13502657e-01     0.00000000e+00    
           5.07562995e-01     5.09811342e-01     0.00000000e+00    
           5.08275390e-01     5.08091509e-01     0.00000000e+00    
           5.09408593e-01     5.06614625e-01     0.00000000e+00    
           5.10885477e-01     5.05481362e-01     0.00000000e+00    
           5.12605369e-01     5.04768968e-01     0.00000000e+00    
           5.14451027e-01     5.04526019e-01     0.00000000e+00    
           5.16296625e-01     5.04768968e-01     0.00000000e+00    
           5.18016517e-01     5.05481362e-01     0.00000000e+00    
           5.19493401e-01     5.06614625e-01     0.00000000e+00    
           5.20626605e-01     5.08091509e-01     0.00000000e+00    
           5.21338999e-01     5.09811342e-01     0.00000000e+00    
           4.66931671e-01     5.04409373e-01     0.00000000e+00    
           4.68693614e-01     5.04328012e-01     0.00000000e+00    
           4.70421344e-01     5.04682958e-01     0.00000000e+00    
           4.72008497e-01     5.05452335e-01     0.00000000e+00    
           4.73357379e-01     5.06588817e-01     0.00000000e+00    
           4.74384934e-01     5.08022368e-01     0.00000000e+00    
           4.75027919e-01     5.09664834e-01     0.00000000e+00    
           4.75028187e-01     5.13165236e-01     0.00000000e+00    
           4.74385172e-01     5.14807761e-01     0.00000000e+00    
           4.73357558e-01     5.16241372e-01     0.00000000e+00    
           4.72008646e-01     5.17377913e-01     0.00000000e+00    
           4.70421433e-01     5.18147290e-01     0.00000000e+00    
           4.68693614e-01     5.18502235e-01     0.00000000e+00    
           4.66931641e-01     5.18420875e-01     0.00000000e+00    
           5.32303810e-01     5.16964078e-01     0.00000000e+00    
           5.31043947e-01     5.15658796e-01     0.00000000e+00    
           5.30155540e-01     5.14077127e-01     0.00000000e+00    
           5.29696345e-01     5.12322068e-01     0.00000000e+00    
           5.29696345e-01     5.10507941e-01     0.00000000e+00    
           5.30155540e-01     5.08752882e-01     0.00000000e+00    
           5.31043947e-01     5.07171214e-01     0.00000000e+00    
           5.32303810e-01     5.05865932e-01     0.00000000e+00    
           4.68517244e-01     5.32760799e-01     0.00000000e+00    
           4.68509018e-01     5.30844629e-01     0.00000000e+00    
           4.68960851e-01     5.28982460e-01     0.00000000e+00    
           4.69846308e-01     5.27283132e-01     0.00000000e+00    
           4.71113682e-01     5.25845945e-01     0.00000000e+00    
           4.72688884e-01     5.24754822e-01     0.00000000e+00    
           4.74479854e-01     5.24073541e-01     0.00000000e+00    
           4.78284091e-01     5.24073601e-01     0.00000000e+00    
           4.80075032e-01     5.24754822e-01     0.00000000e+00    
           4.81650203e-01     5.25845885e-01     0.00000000e+00    
           4.82917547e-01     5.27283013e-01     0.00000000e+00    
           4.83803004e-01     5.28982282e-01     0.00000000e+00    
           4.84254897e-01     5.30844331e-01     0.00000000e+00    
           4.84246761e-01     5.32760441e-01     0.00000000e+00    
           4.82887864e-01     4.67691004e-01     0.00000000e+00    
           4.81620818e-01     4.69110936e-01     0.00000000e+00    
           4.80051905e-01     4.70188022e-01     0.00000000e+00    
           4.78271484e-01     4.70860153e-01     0.00000000e+00    
           4.76382166e-01     4.71088618e-01     0.00000000e+00    
           4.74492878e-01     4.70860243e-01     0.00000000e+00    
           4.72712427e-01     4.70188200e-01     0.00000000e+00    
           4.71143454e-01     4.69111174e-01     0.00000000e+00    
           4.69876349e-01     4.67691302e-01     0.00000000e+00    
           4.88103986e-01     5.33086061e-01     0.00000000e+00    
           4.87431526e-01     5.31323195e-01     0.00000000e+00    
           4.87231195e-01     5.29447019e-01     0.00000000e+00    
           4.87516224e-01     5.27581930e-01     0.00000000e+00    
           4.88267750e-01     5.25851250e-01     0.00000000e+00    
           4.89436030e-01     5.24369657e-01     0.00000000e+00    
           4.90943670e-01     5.23235261e-01     0.00000000e+00    
           4.92690891e-01     5.22523046e-01     0.00000000e+00    
           4.96432930e-01     5.22523701e-01     0.00000000e+00    
           4.98180002e-01     5.23235798e-01     0.00000000e+00    
           4.99687493e-01     5.24370134e-01     0.00000000e+00    
           5.00855684e-01     5.25851607e-01     0.00000000e+00    
           5.01607120e-01     5.27582109e-01     0.00000000e+00    
           5.01892149e-01     5.29447079e-01     0.00000000e+00    
           5.01691818e-01     5.31323016e-01     0.00000000e+00    
           5.01019418e-01     5.33085763e-01     0.00000000e+00    
           4.98371124e-01     4.67269689e-01     0.00000000e+00    
           4.96539861e-01     4.68064904e-01     0.00000000e+00    
           4.94562000e-01     4.68336672e-01     0.00000000e+00    
           4.92584139e-01     4.68064904e-01     0.00000000e+00    
           4.90752876e-01     4.67269689e-01     0.00000000e+00    
           5.32269001e-01     4.75995690e-01     0.00000000e+00    
           5.31541944e-01     4.77750987e-01     0.00000000e+00    
           5.30385315e-01     4.79258329e-01     0.00000000e+00    
           5.28877974e-01     4.80414927e-01     0.00000000e+00    
[...]
      <PointData>
        <DataArray type="Float32" Name="Displacement" NumberOfComponents="3">
           1.04350474e-04     1.56608570e-04     0.00000000e+00    
           1.00392659e-04     1.63206016e-04     0.00000000e+00    
          -6.51204937e-06     1.70429528e-04     0.00000000e+00    
          -5.44652767e-06     1.59369956e-04     0.00000000e+00    
          -2.21050300e-06     1.67194070e-04     0.00000000e+00    
           1.19553471e-04     1.59369956e-04     0.00000000e+00    
           1.18487951e-04     1.70429528e-04     0.00000000e+00    
           2.63917118e-05     2.42741429e-04     0.00000000e+00    
           2.17752586e-05     2.48773227e-04     0.00000000e+00    
           2.03404561e-05     2.38807304e-04     0.00000000e+00    
           2.17752586e-05    -1.22678466e-06     0.00000000e+00    
           2.63917118e-05    -7.25856762e-06     0.00000000e+00    
           5.31132500e-05     2.26725635e-04     0.00000000e+00    
           4.92363943e-05     2.30941761e-04     0.00000000e+00    
           4.56676535e-05     2.22635223e-04     0.00000000e+00    
           4.92363943e-05    -1.90582396e-05     0.00000000e+00    
           5.31132500e-05    -2.32743678e-05     0.00000000e+00    
           1.24541082e-04     4.14046335e-05     0.00000000e+00    
           1.18984288e-04     5.10138998e-05     0.00000000e+00    
           1.19851720e-04     2.06576922e-04     0.00000000e+00    
           1.21205660e-04     2.15082226e-04     0.00000000e+00    
           1.15838280e-04     2.13458901e-04     0.00000000e+00    
          -3.79433777e-06     2.15082226e-04     0.00000000e+00    
          -5.14827752e-06     2.06576922e-04     0.00000000e+00    
           3.08150411e-05     1.97824847e-04     0.00000000e+00    
           2.59521821e-05     1.98951078e-04     0.00000000e+00    
           9.72120324e-05     2.12447674e-04     0.00000000e+00    
           9.11027746e-05     2.10303799e-04     0.00000000e+00    
           6.93708716e-05     9.12647447e-05     0.00000000e+00    
           6.16996986e-05     7.72228304e-05     0.00000000e+00    
           2.14201718e-05     4.87620200e-05     0.00000000e+00    
           1.69277282e-05     4.42876044e-05     0.00000000e+00    
           2.53727194e-05     4.24352984e-05     0.00000000e+00    
           1.41927725e-04     4.42876044e-05     0.00000000e+00    
           1.46420178e-04     4.87620200e-05     0.00000000e+00    
           2.02699666e-05     1.23582620e-04     0.00000000e+00    
           1.50134501e-05     1.16278723e-04     0.00000000e+00    
           4.53404027e-05     5.82212269e-05     0.00000000e+00    
           3.70055714e-05     4.51290289e-05     0.00000000e+00    
           6.25226894e-05     1.07873566e-04     0.00000000e+00    
           5.46562915e-05     1.16033720e-04     0.00000000e+00    
           1.12735805e-04     1.41814700e-04     0.00000000e+00    
           1.06771025e-04     1.35306240e-04     0.00000000e+00    
           4.39957330e-05     1.29074280e-04     0.00000000e+00    
           3.56435339e-05     1.38435295e-04     0.00000000e+00    
           1.08137487e-04     1.01940204e-04     0.00000000e+00    
           1.01592297e-04     9.56685617e-05     0.00000000e+00    
           0.00000000e+00     2.50000012e-04     0.00000000e+00    
           0.00000000e+00     0.00000000e+00     0.00000000e+00    
           1.25000006e-04     0.00000000e+00     0.00000000e+00    
           1.25000006e-04     2.50000012e-04     0.00000000e+00    
           1.04769751e-04     1.58452865e-04     0.00000000e+00    
           1.05349005e-04     1.60039563e-04     0.00000000e+00    
           1.05686457e-04     1.61565447e-04     0.00000000e+00    
           1.05672363e-04     1.62834476e-04     0.00000000e+00    
           1.05335610e-04     1.64265031e-04     0.00000000e+00    
           1.04741135e-04     1.65688689e-04     0.00000000e+00    
           1.04280371e-04     1.66465252e-04     0.00000000e+00    
           1.03791557e-04     1.66306359e-04     0.00000000e+00    
           1.03079197e-04     1.65709047e-04     0.00000000e+00    
           1.02192556e-04     1.64952507e-04     0.00000000e+00    
           1.01305741e-04     1.64165278e-04     0.00000000e+00    
           9.94939910e-05     1.61989199e-04     0.00000000e+00    
           9.87198437e-05     1.60748226e-04     0.00000000e+00    
           9.81313351e-05     1.59515926e-04     0.00000000e+00    
           9.78290482e-05     1.58442432e-04     0.00000000e+00    
           9.80219484e-05     1.57348972e-04     0.00000000e+00    
           9.86755840e-05     1.56191090e-04     0.00000000e+00    
           9.97213938e-05     1.54802066e-04     0.00000000e+00    
           1.01402569e-04     1.52981782e-04     0.00000000e+00    
           1.03478575e-04     1.51503395e-04     0.00000000e+00    
           1.03909922e-04     1.52728870e-04     0.00000000e+00    
           1.03889957e-04     1.54750742e-04     0.00000000e+00    
          -3.88792705e-06     1.59688541e-04     0.00000000e+00    
          -2.85912370e-06     1.60044074e-04     0.00000000e+00    
          -2.38893222e-06     1.60545926e-04     0.00000000e+00    
          -2.15163891e-06     1.61638614e-04     0.00000000e+00    
          -2.09706218e-06     1.63201345e-04     0.00000000e+00    
          -2.05286256e-06     1.64643046e-04     0.00000000e+00    
          -2.14434567e-06     1.66057260e-04     0.00000000e+00    
          -2.40921622e-06     1.68014813e-04     0.00000000e+00    
          -2.83410964e-06     1.68412444e-04     0.00000000e+00    
          -3.45336025e-06     1.68736355e-04     0.00000000e+00    
          -4.04342063e-06     1.68956147e-04     0.00000000e+00    
          -4.56611269e-06     1.69166990e-04     0.00000000e+00    
          -5.15991042e-06     1.69381034e-04     0.00000000e+00    
          -5.86568876e-06     1.69775463e-04     0.00000000e+00    
           1.18016142e-04     1.70234111e-04     0.00000000e+00    
           1.17988602e-04     1.68850049e-04     0.00000000e+00    
           1.17980693e-04     1.66661033e-04     0.00000000e+00    
           1.17837284e-04     1.64717567e-04     0.00000000e+00    
           1.17598109e-04     1.62685872e-04     0.00000000e+00    
           1.17000374e-04     1.60630167e-04     0.00000000e+00    
           1.16199430e-04     1.58586598e-04     0.00000000e+00    
           1.17668889e-04     1.58399591e-04     0.00000000e+00    
           2.08681595e-05     2.47430493e-04     0.00000000e+00    
           2.01536805e-05     2.46081676e-04     0.00000000e+00    
           1.96409583e-05     2.44918367e-04     0.00000000e+00    
           1.93821470e-05     2.43819261e-04     0.00000000e+00    
           1.93065825e-05     2.42644994e-04     0.00000000e+00    
           1.94018940e-05     2.41428876e-04     0.00000000e+00    
           1.97295230e-05     2.40156747e-04     0.00000000e+00    
           2.14621159e-05     2.37220811e-04     0.00000000e+00    
           2.24464566e-05     2.36221444e-04     0.00000000e+00    
           2.30422411e-05     2.36438034e-04     0.00000000e+00    
           2.35714870e-05     2.37444488e-04     0.00000000e+00    
           2.43091145e-05     2.38683089e-04     0.00000000e+00    
           2.50755456e-05     2.39867906e-04     0.00000000e+00    
           2.57941010e-05     2.41103568e-04     0.00000000e+00    
           2.68992735e-05    -5.57485919e-06     0.00000000e+00    
           2.72103625e-05    -3.88117951e-06     0.00000000e+00    
           2.71804383e-05    -2.40637542e-06     0.00000000e+00    
           2.66593706e-05    -1.00479951e-06     0.00000000e+00    
           2.58164055e-05     6.11220457e-07     0.00000000e+00    
           2.48837041e-05     2.05600031e-06     0.00000000e+00    
           2.41940306e-05     2.19928370e-06     0.00000000e+00    
           2.34875533e-05     1.22288759e-06     0.00000000e+00    
           2.26102875e-05    -2.51599541e-08     0.00000000e+00    
           4.81296302e-05     2.30365156e-04     0.00000000e+00    
           4.70248851e-05     2.29544705e-04     0.00000000e+00    
           4.59951225e-05     2.28481978e-04     0.00000000e+00    
           4.49855361e-05     2.26941396e-04     0.00000000e+00    
           4.40335098e-05     2.24995398e-04     0.00000000e+00    
           4.33444584e-05     2.23214054e-04     0.00000000e+00    
           4.35525435e-05     2.22401708e-04     0.00000000e+00    
           4.44875113e-05     2.22509829e-04     0.00000000e+00    
           4.67786595e-05     2.22508781e-04     0.00000000e+00    
           4.79130249e-05     2.22366623e-04     0.00000000e+00    
           4.91907740e-05     2.22350936e-04     0.00000000e+00    
           5.05196076e-05     2.22464398e-04     0.00000000e+00    
           5.17138833e-05     2.22633258e-04     0.00000000e+00    
           5.25691539e-05     2.23102950e-04     0.00000000e+00    
           5.29951467e-05     2.24005154e-04     0.00000000e+00    
           5.31084333e-05     2.25297699e-04     0.00000000e+00    
           5.29023964e-05    -2.19288031e-05     0.00000000e+00    
           5.25030337e-05    -2.07614776e-05     0.00000000e+00    
           5.19099376e-05    -1.98261150e-05     0.00000000e+00    
           5.11149483e-05    -1.91479794e-05     0.00000000e+00    
           5.02548864e-05    -1.88642753e-05     0.00000000e+00    
           1.26282466e-04     4.26248407e-05     0.00000000e+00    
           1.26720741e-04     4.37111594e-05     0.00000000e+00    
           1.26456463e-04     4.50708903e-05     0.00000000e+00    
           1.26020823e-04     4.69779479e-05     0.00000000e+00    
           1.25347084e-04     4.92654290e-05     0.00000000e+00    
           1.24324433e-04     5.17241861e-05     0.00000000e+00    
           1.23194579e-04     5.45343610e-05     0.00000000e+00    
           1.22052443e-04     5.59829932e-05     0.00000000e+00    
           1.21417710e-04     5.56433733e-05     0.00000000e+00    
           1.20713543e-04     5.41985864e-05     0.00000000e+00    
           1.19824232e-04     5.26849981e-05     0.00000000e+00    
           1.18089636e-04     4.93677071e-05     0.00000000e+00    
           1.17398529e-04     4.75415181e-05     0.00000000e+00    
           1.16876698e-04     4.57104179e-05     0.00000000e+00    
           1.16623691e-04     4.37849012e-05     0.00000000e+00    
           1.16659408e-04     4.17922274e-05     0.00000000e+00    
           1.16906398e-04     3.99359778e-05     0.00000000e+00    
           1.17380892e-04     3.88634835e-05     0.00000000e+00    
           1.18084092e-04     3.86204374e-05     0.00000000e+00    
           1.19289638e-04     3.89342822e-05     0.00000000e+00    
           1.20726967e-04     3.94838826e-05     0.00000000e+00    
           1.22441110e-04     4.02606929e-05     0.00000000e+00    
           1.20748497e-04     2.16272165e-04     0.00000000e+00    
           1.20170720e-04     2.17570720e-04     0.00000000e+00    
           1.19500299e-04     2.18919085e-04     0.00000000e+00    
           1.19001539e-04     2.19704016e-04     0.00000000e+00    
           1.18683558e-04     2.19565860e-04     0.00000000e+00    
           1.18013872e-04     2.18649817e-04     0.00000000e+00    
           1.17262105e-04     2.17134177e-04     0.00000000e+00    
           1.16599927e-04     2.15728796e-04     0.00000000e+00    
           1.16046038e-04     2.14528904e-04     0.00000000e+00    
           1.15833471e-04     2.12243307e-04     0.00000000e+00    
           1.15783710e-04     2.11054095e-04     0.00000000e+00    
           1.15890332e-04     2.10019905e-04     0.00000000e+00    
           1.16166841e-04     2.09372723e-04     0.00000000e+00    
           1.16511925e-04     2.08815400e-04     0.00000000e+00    
           1.17042691e-04     2.08076672e-04     0.00000000e+00    
           1.17786010e-04     2.07050834e-04     0.00000000e+00    
           1.18606862e-04     2.05588265e-04     0.00000000e+00    
           1.19422679e-04     2.05372140e-04     0.00000000e+00    
          -4.66139909e-06     2.08320562e-04     0.00000000e+00    
          -4.24325981e-06     2.09988590e-04     0.00000000e+00    
          -3.86773308e-06     2.11535604e-04     0.00000000e+00    
          -3.66332051e-06     2.13008971e-04     0.00000000e+00    
          -3.61878938e-06     2.14085099e-04     0.00000000e+00    
           3.12250413e-05     1.99265633e-04     0.00000000e+00    
           3.17726772e-05     2.00993352e-04     0.00000000e+00    
           3.24156026e-05     2.02653027e-04     0.00000000e+00    
           3.25039655e-05     2.03792064e-04     0.00000000e+00    
           3.17129670e-05     2.04008436e-04     0.00000000e+00    
           3.04068271e-05     2.04096214e-04     0.00000000e+00    
           2.92815930e-05     2.04674056e-04     0.00000000e+00    
           2.81320972e-05     2.05384160e-04     0.00000000e+00    
           2.73997484e-05     2.05204691e-04     0.00000000e+00    
           2.71174868e-05     2.04045034e-04     0.00000000e+00    
           2.66464631e-05     2.02337993e-04     0.00000000e+00    
           2.62915146e-05     2.00439667e-04     0.00000000e+00    
           2.57283373e-05     1.97610221e-04     0.00000000e+00    
           2.59514127e-05     1.96723078e-04     0.00000000e+00    
           2.64589580e-05     1.95956702e-04     0.00000000e+00    
           2.71205099e-05     1.94989465e-04     0.00000000e+00    
           2.78739881e-05     1.93931774e-04     0.00000000e+00    
           2.87152634e-05     1.92700361e-04     0.00000000e+00    
           2.92528130e-05     1.91831408e-04     0.00000000e+00    
           2.93785397e-05     1.91948435e-04     0.00000000e+00    
           2.95583432e-05     1.92953230e-04     0.00000000e+00    
           2.98037830e-05     1.94251843e-04     0.00000000e+00    
           3.00976590e-05     1.95459026e-04     0.00000000e+00    
           3.04734040e-05     1.96604436e-04     0.00000000e+00    
           9.65352883e-05     2.13406151e-04     0.00000000e+00    
           9.58484743e-05     2.14269079e-04     0.00000000e+00    
           9.50597241e-05     2.14779793e-04     0.00000000e+00    
           9.41972030e-05     2.14844011e-04     0.00000000e+00    
           9.33263291e-05     2.14621527e-04     0.00000000e+00    
           9.25479471e-05     2.14171785e-04     0.00000000e+00    
           9.18801161e-05     2.13512045e-04     0.00000000e+00    
           9.13454496e-05     2.12662213e-04     0.00000000e+00    
           9.08953079e-05     2.11776714e-04     0.00000000e+00    
           9.07141075e-05     2.10973187e-04     0.00000000e+00    
           9.19578306e-05     2.09597027e-04     0.00000000e+00    
           9.29807356e-05     2.08743077e-04     0.00000000e+00    
           9.40531463e-05     2.07915626e-04     0.00000000e+00    
           9.51791881e-05     2.07048535e-04     0.00000000e+00    
           9.61247351e-05     2.06315832e-04     0.00000000e+00    
           9.68123859e-05     2.05954741e-04     0.00000000e+00    
           9.71553600e-05     2.06642770e-04     0.00000000e+00    
           9.74322247e-05     2.08185782e-04     0.00000000e+00    
           9.75481016e-05     2.09984632e-04     0.00000000e+00    
           9.75642615e-05     2.11398437e-04     0.00000000e+00    
           6.84386396e-05     9.20077873e-05     0.00000000e+00    
           6.66477863e-05     9.21012543e-05     0.00000000e+00    
           6.44432876e-05     9.20355888e-05     0.00000000e+00    
           6.22347361e-05     9.19230879e-05     0.00000000e+00    
           6.06494650e-05     9.20077800e-05     0.00000000e+00    
           5.95474376e-05     9.11715906e-05     0.00000000e+00    
           5.90115669e-05     8.82978638e-05     0.00000000e+00    
           5.89699739e-05     8.51962468e-05     0.00000000e+00    
           5.93064979e-05     8.26727701e-05     0.00000000e+00    
           5.99991836e-05     8.04574884e-05     0.00000000e+00    
           6.08289192e-05     7.86429300e-05     0.00000000e+00    
           6.28904672e-05     7.66664307e-05     0.00000000e+00    
           6.48869973e-05     7.68832469e-05     0.00000000e+00    
           6.71731468e-05     7.76125889e-05     0.00000000e+00    
           6.89189619e-05     7.86291930e-05     0.00000000e+00    
           7.02009856e-05     7.99183617e-05     0.00000000e+00    
           7.10009408e-05     8.15238163e-05     0.00000000e+00    
           7.14478811e-05     8.32980149e-05     0.00000000e+00    
           7.15096321e-05     8.51453951e-05     0.00000000e+00    
           7.12818000e-05     8.70338336e-05     0.00000000e+00    
           7.07699219e-05     8.87470451e-05     0.00000000e+00    
           7.00855744e-05     9.02517131e-05     0.00000000e+00    
           1.76727626e-05     4.32411616e-05     0.00000000e+00    
           1.83176526e-05     4.17929150e-05     0.00000000e+00    
           1.90960109e-05     4.02453479e-05     0.00000000e+00    
           1.99840633e-05     3.85452513e-05     0.00000000e+00    
           2.08817764e-05     3.74549854e-05     0.00000000e+00    
           2.16037479e-05     3.76240096e-05     0.00000000e+00    
           2.24929863e-05     3.87741566e-05     0.00000000e+00    
           2.34424951e-05     4.02728947e-05     0.00000000e+00    
           2.45439805e-05     4.14194037e-05     0.00000000e+00    
           2.52747632e-05     4.34654903e-05     0.00000000e+00    
           2.48170763e-05     4.47374478e-05     0.00000000e+00    
           2.45759238e-05     4.63456854e-05     0.00000000e+00    
           2.43389240e-05     4.79775081e-05     0.00000000e+00    
           2.42864535e-05     4.93475964e-05     0.00000000e+00    
           2.41530161e-05     5.00765309e-05     0.00000000e+00    
           2.37995991e-05     5.00356582e-05     0.00000000e+00    
           2.31605154e-05     4.96758767e-05     0.00000000e+00    
           2.23657353e-05     4.92512445e-05     0.00000000e+00    
           1.45398430e-04     4.80964372e-05     0.00000000e+00    
           1.44000587e-04     4.72112624e-05     0.00000000e+00    
           1.42473596e-04     4.62125827e-05     0.00000000e+00    
           1.41554701e-04     4.52205095e-05     0.00000000e+00    
           1.97406771e-05     1.24614220e-04     0.00000000e+00    
           1.84331657e-05     1.24834274e-04     0.00000000e+00    
           1.67196049e-05     1.24740938e-04     0.00000000e+00    
           1.52305502e-05     1.24562503e-04     0.00000000e+00    
           1.38867354e-05     1.24329890e-04     0.00000000e+00    
           1.28307929e-05     1.23959733e-04     0.00000000e+00    
           1.22790598e-05     1.23387217e-04     0.00000000e+00    
           1.22419324e-05     1.22155179e-04     0.00000000e+00    
           1.25170609e-05     1.20393677e-04     0.00000000e+00    
           1.29885475e-05     1.18825934e-04     0.00000000e+00    
           1.38255364e-05     1.17518779e-04     0.00000000e+00    
           1.63514887e-05     1.15151313e-04     0.00000000e+00    
           1.76610356e-05     1.14037808e-04     0.00000000e+00    
           1.89131970e-05     1.13144932e-04     0.00000000e+00    
           1.98863672e-05     1.12546222e-04     0.00000000e+00    
           2.06065142e-05     1.12361391e-04     0.00000000e+00    
           2.10118233e-05     1.13090733e-04     0.00000000e+00    
           2.12706927e-05     1.14652663e-04     0.00000000e+00    
           2.14985121e-05     1.16486844e-04     0.00000000e+00    
           2.14532356e-05     1.18330878e-04     0.00000000e+00    