<?xml version="1.0"?>
<VTKFile type="UnstructuredGrid" version="0.1">
  <UnstructuredGrid>
    <Piece NumberOfPoints="1034" NumberOfCells="1614">
      <Points>
        <DataArray type="Float32" NumberOfComponents="3">
           5.21582007e-01     5.11657000e-01     0.00000000e+00    
           5.07319987e-01     5.11657000e-01     0.00000000e+00    
           4.65243995e-01     5.17907977e-01     0.00000000e+00    
           4.65243995e-01     5.04921973e-01     0.00000000e+00    
           4.75246996e-01     5.11415005e-01     0.00000000e+00    
           5.33852994e-01     5.04921973e-01     0.00000000e+00    
           5.33852994e-01     5.17907977e-01     0.00000000e+00    
           4.83779997e-01     5.34618974e-01     0.00000000e+00    
           4.68984991e-01     5.34618974e-01     0.00000000e+00    
           4.76381987e-01     5.23841977e-01     0.00000000e+00    
           4.68984991e-01     4.66010004e-01     0.00000000e+00    
           4.83779997e-01     4.66010004e-01     0.00000000e+00    
           4.99920011e-01     5.34618974e-01     0.00000000e+00    
           4.89203990e-01     5.34618974e-01     0.00000000e+00    
           4.94562000e-01     5.22280991e-01     0.00000000e+00    
           4.89203990e-01     4.66010004e-01     0.00000000e+00    
           4.99920011e-01     4.66010004e-01     0.00000000e+00    
           5.32517016e-01     4.74112004e-01     0.00000000e+00    
           5.17961025e-01     4.74112004e-01     0.00000000e+00    
           5.33852994e-01     5.19801974e-01     0.00000000e+00    
           5.33852994e-01     5.29603004e-01     0.00000000e+00    
           5.19536972e-01     5.24702013e-01     0.00000000e+00    
           4.65243995e-01     5.29603004e-01     0.00000000e+00    
           4.65243995e-01     5.19801974e-01     0.00000000e+00    
           4.92487997e-01     5.17117977e-01     0.00000000e+00    
           4.76904988e-01     5.17117977e-01     0.00000000e+00    
           5.17996013e-01     5.27033985e-01     0.00000000e+00    
           5.04473984e-01     5.27033985e-01     0.00000000e+00    
           5.08446991e-01     4.83435005e-01     0.00000000e+00    
           4.94414002e-01     4.83435005e-01     0.00000000e+00    
           4.65243995e-01     4.83101994e-01     0.00000000e+00    
           4.65243995e-01     4.74415004e-01     0.00000000e+00    
           4.78336990e-01     4.78758007e-01     0.00000000e+00    
           5.33852994e-01     4.74415004e-01     0.00000000e+00    
           5.33852994e-01     4.83101994e-01     0.00000000e+00    
           4.80668008e-01     4.95810986e-01     0.00000000e+00    
           4.66084987e-01     4.95810986e-01     0.00000000e+00    
           4.93930012e-01     4.79214013e-01     0.00000000e+00    
           4.78967011e-01     4.79214013e-01     0.00000000e+00    
           5.09284973e-01     4.97658014e-01     0.00000000e+00    
           4.95503992e-01     4.97658014e-01     0.00000000e+00    
           5.33011973e-01     5.01751006e-01     0.00000000e+00    
           5.17829001e-01     5.01751006e-01     0.00000000e+00    
           4.95451003e-01     5.00564992e-01     0.00000000e+00    
           4.80922014e-01     5.00564992e-01     0.00000000e+00    
           5.25367022e-01     4.88312006e-01     0.00000000e+00    
           5.09521008e-01     4.88312006e-01     0.00000000e+00    
           4.65243995e-01     5.34618974e-01     0.00000000e+00    
           4.65243995e-01     4.66010004e-01     0.00000000e+00    
           5.33852994e-01     4.66010004e-01     0.00000000e+00    
           5.33852994e-01     5.34618974e-01     0.00000000e+00    
           5.21338999e-01     5.13502657e-01     0.00000000e+00    
           5.20626605e-01     5.15222490e-01     0.00000000e+00    
           5.19493401e-01     5.16699374e-01     0.00000000e+00    
           5.18016517e-01     5.17832637e-01     0.00000000e+00    
           5.16296625e-01     5.18545032e-01     0.00000000e+00    
           5.14451027e-01     5.18787980e-01     0.00000000e+00    
           5.12605369e-01     5.18545032e-01     0.00000000e+00    
           5.10885477e-01     5.17832637e-01     0.00000000e+00    
           5.09408593e-01     5.16699374e-01     0.00000000e+00    
           5.08275390e-01     5.15222490e-01     0.00000000e+00    
           5.07562995e-01     5.13502657e-01     0.00000000e+00    
           5.07562995e-01     5.09811342e-01     0.00000000e+00    
           5.08275390e-01     5.08091509e-01     0.00000000e+00    
           5.09408593e-01     5.06614625e-01     0.00000000e+00    
           5.10885477e-01     5.05481362e-01     0.00000000e+00    
           5.12605369e-01     5.04768968e-01     0.00000000e+00    
           5.14451027e-01     5.04526019e-01     0.00000000e+00    
           5.16296625e-01     5.04768968e-01     0.00000000e+00    
           5.18016517e-01     5.05481362e-01     0.00000000e+00    
           5.19493401e-01     5.06614625e-01     0.00000000e+00    
           5.20626605e-01     5.08091509e-01     0.00000000e+00    
           5.21338999e-01     5.09811342e-01     0.00000000e+00    
           4.66931671e-01     5.04409373e-01     0.00000000e+00    
           4.68693614e-01     5.04328012e-01     0.00000000e+00    
           4.70421344e-01     5.04682958e-01     0.00000000e+00    
           4.72008497e-01     5.05452335e-01     0.00000000e+00    
           4.73357379e-01     5.06588817e-01     0.00000000e+00    
           4.74384934e-01     5.08022368e-01     0.00000000e+00    
           4.75027919e-01     5.09664834e-01     0.00000000e+00    
           4.75028187e-01     5.13165236e-01     0.00000000e+00    
           4.74385172e-01     5.14807761e-01     0.00000000e+00    
           4.73357558e-01     5.16241372e-01     0.00000000e+00    
           4.72008646e-01     5.17377913e-01     0.00000000e+00    
           4.70421433e-01     5.18147290e-01     0.00000000e+00    
           4.68693614e-01     5.18502235e-01     0.00000000e+00    
           4.66931641e-01     5.18420875e-01     0.00000000e+00    
           5.32303810e-01     5.16964078e-01     0.00000000e+00    
           5.31043947e-01     5.15658796e-01     0.00000000e+00    
           5.30155540e-01     5.14077127e-01     0.00000000e+00    
           5.29696345e-01     5.12322068e-01     0.00000000e+00    
           5.29696345e-01     5.10507941e-01     0.00000000e+00    
           5.30155540e-01     5.08752882e-01     0.00000000e+00    
           5.31043947e-01     5.07171214e-01     0.00000000e+00    
           5.32303810e-01     5.05865932e-01     0.00000000e+00    
           4.68517244e-01     5.32760799e-01     0.00000000e+00    
           4.68509018e-01     5.30844629e-01     0.00000000e+00    
           4.68960851e-01     5.28982460e-01     0.00000000e+00    
           4.69846308e-01     5.27283132e-01     0.00000000e+00    
           4.71113682e-01     5.25845945e-01     0.00000000e+00    
           4.72688884e-01     5.24754822e-01     0.00000000e+00    
           4.74479854e-01     5.24073541e-01     0.00000000e+00    
           4.78284091e-01     5.24073601e-01     0.00000000e+00    
           4.80075032e-01     5.24754822e-01     0.00000000e+00    
           4.81650203e-01     5.25845885e-01     0.00000000e+00    
           4.82917547e-01     5.27283013e-01     0.00000000e+00    
           4.83803004e-01     5.28982282e-01     0.00000000e+00    
           4.84254897e-01     5.30844331e-01     0.00000000e+00    
           4.84246761e-01     5.32760441e-01     0.00000000e+00    
           4.82887864e-01     4.67691004e-01     0.00000000e+00    
           4.81620818e-01     4.69110936e-01     0.00000000e+00    
           4.80051905e-01     4.70188022e-01     0.00000000e+00    
           4.78271484e-01     4.70860153e-01     0.00000000e+00    
           4.76382166e-01     4.71088618e-01     0.00000000e+00    
           4.74492878e-01     4.70860243e-01     0.00000000e+00    
           4.72712427e-01     4.70188200e-01     0.00000000e+00    
           4.71143454e-01     4.69111174e-01     0.00000000e+00    
           4.69876349e-01     4.67691302e-01     0.00000000e+00    
           4.88103986e-01     5.33086061e-01     0.00000000e+00    
           4.87431526e-01     5.31323195e-01     0.00000000e+00    
           4.87231195e-01     5.29447019e-01     0.00000000e+00    
           4.87516224e-01     5.27581930e-01     0.00000000e+00    
           4.88267750e-01     5.25851250e-01     0.00000000e+00    
           4.89436030e-01     5.24369657e-01     0.00000000e+00    
           4.90943670e-01     5.23235261e-01     0.00000000e+00    
           4.92690891e-01     5.22523046e-01     0.00000000e+00    
           4.96432930e-01     5.22523701e-01     0.00000000e+00    
           4.98180002e-01     5.23235798e-01     0.00000000e+00    
           4.99687493e-01     5.24370134e-01     0.00000000e+00    
           5.00855684e-01     5.25851607e-01     0.00000000e+00    
           5.01607120e-01     5.27582109e-01     0.00000000e+00    
           5.01892149e-01     5.29447079e-01     0.00000000e+00    
           5.01691818e-01     5.31323016e-01     0.00000000e+00    
           5.01019418e-01     5.33085763e-01     0.00000000e+00    
           4.98371124e-01     4.67269689e-01     0.00000000e+00    
           4.96539861e-01     4.68064904e-01     0.00000000e+00    
           4.94562000e-01     4.68336672e-01     0.00000000e+00    
           4.92584139e-01     4.68064904e-01     0.00000000e+00    
           4.90752876e-01     4.67269689e-01     0.00000000e+00    
           5.32269001e-01     4.75995690e-01     0.00000000e+00    
           5.31541944e-01     4.77750987e-01     0.00000000e+00    
           5.30385315e-01     4.79258329e-01     0.00000000e+00    
           5.28877974e-01     4.80414927e-01     0.00000000e+00    
[...]
      <PointData>
        <DataArray type="Float32" Name="Displacement" NumberOfComponents="3">
           8.71569559e-04     1.52660452e-03     0.00000000e+00    
           8.51118239e-04     1.52796751e-03     0.00000000e+00    
           5.62709420e-06     1.55425060e-03     0.00000000e+00    
           2.94708643e-05     1.53535092e-03     0.00000000e+00    
           3.21065709e-05     1.56420399e-03     0.00000000e+00    
           1.17947091e-03     1.53535092e-03     0.00000000e+00    
           1.15562708e-03     1.55425060e-03     0.00000000e+00    
           1.81416486e-04     2.18936638e-03     0.00000000e+00    
           1.61575284e-04     2.21497612e-03     0.00000000e+00    
           1.53356727e-04     2.18506809e-03     0.00000000e+00    
           1.61575284e-04    -8.50237702e-05     0.00000000e+00    
           1.81416486e-04    -1.10633540e-04     0.00000000e+00    
           4.34739632e-04     2.15416169e-03     0.00000000e+00    
           4.20671451e-04     2.13888171e-03     0.00000000e+00    
           4.44504025e-04     2.12772819e-03     0.00000000e+00    
           4.20671451e-04    -1.61118267e-04     0.00000000e+00    
           4.34739632e-04    -1.45838407e-04     0.00000000e+00    
           1.06056419e-03     3.69913672e-04     0.00000000e+00    
           1.03998685e-03     3.58625053e-04     0.00000000e+00    
           1.03937043e-03     1.98679697e-03     0.00000000e+00    
           1.05086248e-03     2.00247206e-03     0.00000000e+00    
           1.02579757e-03     2.00995686e-03     0.00000000e+00    
          -9.91374982e-05     2.00247206e-03     0.00000000e+00    
          -1.10629575e-04     1.98679697e-03     0.00000000e+00    
           2.68630771e-04     1.75975333e-03     0.00000000e+00    
           2.46603769e-04     1.75161415e-03     0.00000000e+00    
           8.08207202e-04     2.06482364e-03     0.00000000e+00    
           7.88711477e-04     2.06051068e-03     0.00000000e+00    
           5.74105070e-04     6.99552184e-04     0.00000000e+00    
           5.54407539e-04     6.75025221e-04     0.00000000e+00    
           9.04203407e-05     4.76497196e-04     0.00000000e+00    
           1.04462721e-04     4.63075616e-04     0.00000000e+00    
           1.15600858e-04     4.91343962e-04     0.00000000e+00    
           1.25446275e-03     4.63075616e-04     0.00000000e+00    
           1.24042039e-03     4.76497196e-04     0.00000000e+00    
           1.27153413e-04     1.09343510e-03     0.00000000e+00    
           1.06410240e-04     1.12347933e-03     0.00000000e+00    
           3.04189627e-04     5.26240154e-04     0.00000000e+00    
           2.83270230e-04     5.12913335e-04     0.00000000e+00    
           5.86799637e-04     1.05683540e-03     0.00000000e+00    
           5.67109033e-04     1.08147308e-03     0.00000000e+00    
           1.02129066e-03     1.29103370e-03     0.00000000e+00    
           9.99621814e-04     1.29547948e-03     0.00000000e+00    
           3.51001363e-04     1.16654462e-03     0.00000000e+00    
           3.30619019e-04     1.18850346e-03     0.00000000e+00    
           8.52165336e-04     8.40501103e-04     0.00000000e+00    
           8.29527329e-04     8.15785723e-04     0.00000000e+00    
           0.00000000e+00     2.30000005e-03     0.00000000e+00    
           0.00000000e+00     0.00000000e+00     0.00000000e+00    
           1.15000003e-03     0.00000000e+00     0.00000000e+00    
           1.15000003e-03     2.30000005e-03     0.00000000e+00    
           8.70902790e-04     1.53063040e-03     0.00000000e+00    
           8.69448646e-04     1.53340108e-03     0.00000000e+00    
           8.67285591e-04     1.53558236e-03     0.00000000e+00    
           8.65262467e-04     1.53690716e-03     0.00000000e+00    
           8.63430672e-04     1.53755024e-03     0.00000000e+00    
           8.61558889e-04     1.53773022e-03     0.00000000e+00    
           8.59903987e-04     1.53759285e-03     0.00000000e+00    
           8.57999141e-04     1.53711170e-03     0.00000000e+00    
           8.55663151e-04     1.53612124e-03     0.00000000e+00    
           8.53457954e-04     1.53399073e-03     0.00000000e+00    
           8.51768476e-04     1.53130654e-03     0.00000000e+00    
           8.51350371e-04     1.52430846e-03     0.00000000e+00    
           8.52887111e-04     1.52146374e-03     0.00000000e+00    
           8.54761805e-04     1.51909958e-03     0.00000000e+00    
           8.57157167e-04     1.51753100e-03     0.00000000e+00    
           8.59541411e-04     1.51682564e-03     0.00000000e+00    
           8.62170476e-04     1.51668885e-03     0.00000000e+00    
           8.64638190e-04     1.51725044e-03     0.00000000e+00    
           8.66690185e-04     1.51851575e-03     0.00000000e+00    
           8.68079893e-04     1.51994510e-03     0.00000000e+00    
           8.69119074e-04     1.52142090e-03     0.00000000e+00    
           8.70249874e-04     1.52348715e-03     0.00000000e+00    
           3.29230352e-05     1.53749238e-03     0.00000000e+00    
           3.55120283e-05     1.54080265e-03     0.00000000e+00    
           3.68028632e-05     1.54450559e-03     0.00000000e+00    
           3.73846378e-05     1.54833798e-03     0.00000000e+00    
           3.74579904e-05     1.55232369e-03     0.00000000e+00    
           3.66993991e-05     1.55630230e-03     0.00000000e+00    
           3.49442125e-05     1.56061002e-03     0.00000000e+00    
           2.80320273e-05     1.56686676e-03     0.00000000e+00    
           2.38378434e-05     1.56803394e-03     0.00000000e+00    
           1.94717140e-05     1.56822999e-03     0.00000000e+00    
           1.52732773e-05     1.56719773e-03     0.00000000e+00    
           1.15525872e-05     1.56503578e-03     0.00000000e+00    
           8.41793462e-06     1.56209432e-03     0.00000000e+00    
           6.43934436e-06     1.55824400e-03     0.00000000e+00    
           1.15594757e-03     1.55020470e-03     0.00000000e+00    
           1.15691556e-03     1.54633995e-03     0.00000000e+00    
           1.15786528e-03     1.54207018e-03     0.00000000e+00    
           1.16010138e-03     1.53803604e-03     0.00000000e+00    
           1.16412994e-03     1.53446652e-03     0.00000000e+00    
           1.16867700e-03     1.53277069e-03     0.00000000e+00    
           1.17261440e-03     1.53288327e-03     0.00000000e+00    
           1.17619988e-03     1.53386279e-03     0.00000000e+00    
           1.56784648e-04     2.21229647e-03     0.00000000e+00    
           1.53422501e-04     2.20848992e-03     0.00000000e+00    
           1.51316563e-04     2.20455858e-03     0.00000000e+00    
           1.49834959e-04     2.20039557e-03     0.00000000e+00    
           1.49376458e-04     2.19625258e-03     0.00000000e+00    
           1.49950924e-04     2.19211285e-03     0.00000000e+00    
           1.51471657e-04     2.18829769e-03     0.00000000e+00    
           1.55934584e-04     2.18221918e-03     0.00000000e+00    
           1.58943687e-04     2.18003872e-03     0.00000000e+00    
           1.62618526e-04     2.17854977e-03     0.00000000e+00    
           1.67258768e-04     2.17788876e-03     0.00000000e+00    
           1.72079366e-04     2.17926479e-03     0.00000000e+00    
           1.76145972e-04     2.18171277e-03     0.00000000e+00    
           1.79501338e-04     2.18505436e-03     0.00000000e+00    
           1.82242060e-04    -1.06447951e-04     0.00000000e+00    
           1.82159929e-04    -1.02423874e-04     0.00000000e+00    
           1.81743701e-04    -9.87557578e-05     0.00000000e+00    
           1.80918898e-04    -9.50613394e-05     0.00000000e+00    
           1.79424969e-04    -9.18554215e-05     0.00000000e+00    
           1.77387905e-04    -8.90079027e-05     0.00000000e+00    
           1.74638466e-04    -8.64999165e-05     0.00000000e+00    
           1.71081221e-04    -8.47989213e-05     0.00000000e+00    
           1.66365207e-04    -8.42054142e-05     0.00000000e+00    
           4.20871860e-04     2.13486212e-03     0.00000000e+00    
           4.22166777e-04     2.13090749e-03     0.00000000e+00    
           4.24630911e-04     2.12752726e-03     0.00000000e+00    
           4.27879306e-04     2.12451280e-03     0.00000000e+00    
           4.32362896e-04     2.12304341e-03     0.00000000e+00    
           4.35979309e-04     2.12327344e-03     0.00000000e+00    
           4.39129450e-04     2.12418963e-03     0.00000000e+00    
           4.41848242e-04     2.12560198e-03     0.00000000e+00    
           4.46726743e-04     2.13030004e-03     0.00000000e+00    
           4.48438921e-04     2.13359273e-03     0.00000000e+00    
           4.49441985e-04     2.13743164e-03     0.00000000e+00    
           4.49438347e-04     2.14135484e-03     0.00000000e+00    
           4.48069302e-04     2.14525196e-03     0.00000000e+00    
           4.45892889e-04     2.14854232e-03     0.00000000e+00    
           4.43026132e-04     2.15151650e-03     0.00000000e+00    
           4.38971416e-04     2.15346529e-03     0.00000000e+00    
           4.30650980e-04    -1.46557737e-04     0.00000000e+00    
           4.27214807e-04    -1.48340172e-04     0.00000000e+00    
           4.24548198e-04    -1.50815322e-04     0.00000000e+00    
           4.22635581e-04    -1.53899746e-04     0.00000000e+00    
           4.21394012e-04    -1.57364993e-04     0.00000000e+00    
           1.05864229e-03     3.72357463e-04     0.00000000e+00    
           1.05655694e-03     3.73993011e-04     0.00000000e+00    
           1.05414272e-03     3.75654403e-04     0.00000000e+00    
           1.05059124e-03     3.76361277e-04     0.00000000e+00    
           1.04715920e-03     3.75975855e-04     0.00000000e+00    
           1.04446860e-03     3.74650699e-04     0.00000000e+00    
           1.04252959e-03     3.72816052e-04     0.00000000e+00    
           1.04127976e-03     3.70675378e-04     0.00000000e+00    
           1.04067964e-03     3.68458132e-04     0.00000000e+00    
           1.03965821e-03     3.65942542e-04     0.00000000e+00    
           1.03919220e-03     3.62640247e-04     0.00000000e+00    
           1.04183680e-03     3.55521654e-04     0.00000000e+00    
           1.04482693e-03     3.52845236e-04     0.00000000e+00    
           1.04810612e-03     3.51642229e-04     0.00000000e+00    
           1.05106144e-03     3.51548777e-04     0.00000000e+00    
           1.05354888e-03     3.52343515e-04     0.00000000e+00    
           1.05549686e-03     3.53564625e-04     0.00000000e+00    
           1.05716230e-03     3.55024327e-04     0.00000000e+00    
           1.05875940e-03     3.56898847e-04     0.00000000e+00    
           1.06021541e-03     3.59346828e-04     0.00000000e+00    
           1.06135127e-03     3.62462684e-04     0.00000000e+00    
           1.06179120e-03     3.66048160e-04     0.00000000e+00    
           1.05041312e-03     2.00576545e-03     0.00000000e+00    
           1.04929076e-03     2.00893520e-03     0.00000000e+00    
           1.04747585e-03     2.01180088e-03     0.00000000e+00    
           1.04502693e-03     2.01393641e-03     0.00000000e+00    
           1.04200502e-03     2.01566285e-03     0.00000000e+00    
           1.03829021e-03     2.01646797e-03     0.00000000e+00    
           1.03450252e-03     2.01592664e-03     0.00000000e+00    
           1.03103893e-03     2.01450824e-03     0.00000000e+00    
           1.02817360e-03     2.01252452e-03     0.00000000e+00    
           1.02390500e-03     2.00640201e-03     0.00000000e+00    
           1.02341536e-03     2.00249604e-03     0.00000000e+00    
           1.02415064e-03     1.99871138e-03     0.00000000e+00    
           1.02515228e-03     1.99554279e-03     0.00000000e+00    
           1.02632667e-03     1.99279678e-03     0.00000000e+00    
           1.02843298e-03     1.99036859e-03     0.00000000e+00    
           1.03079830e-03     1.98847544e-03     0.00000000e+00    
           1.03344105e-03     1.98729103e-03     0.00000000e+00    
           1.03623199e-03     1.98670803e-03     0.00000000e+00    
          -1.07149390e-04     1.98776717e-03     0.00000000e+00    
          -1.03894687e-04     1.98988151e-03     0.00000000e+00    
          -1.01480357e-04     1.99282425e-03     0.00000000e+00    
          -1.00146513e-04     1.99629110e-03     0.00000000e+00    
          -9.93823414e-05     1.99935865e-03     0.00000000e+00    
           2.66991032e-04     1.76304055e-03     0.00000000e+00    
           2.64421687e-04     1.76555756e-03     0.00000000e+00    
           2.62095913e-04     1.76672684e-03     0.00000000e+00    
           2.60108529e-04     1.76733825e-03     0.00000000e+00    
           2.57908308e-04     1.76772149e-03     0.00000000e+00    
           2.55323423e-04     1.76765630e-03     0.00000000e+00    
           2.52855534e-04     1.76649657e-03     0.00000000e+00    
           2.51066900e-04     1.76503661e-03     0.00000000e+00    
           2.49633420e-04     1.76320295e-03     0.00000000e+00    
           2.48585711e-04     1.76125625e-03     0.00000000e+00    
           2.46910320e-04     1.75866601e-03     0.00000000e+00    
           2.46233569e-04     1.75498426e-03     0.00000000e+00    
           2.48038879e-04     1.74837105e-03     0.00000000e+00    
           2.50032899e-04     1.74602028e-03     0.00000000e+00    
           2.52381084e-04     1.74417463e-03     0.00000000e+00    
           2.55178049e-04     1.74319290e-03     0.00000000e+00    
           2.58025131e-04     1.74306380e-03     0.00000000e+00    
           2.60681816e-04     1.74365169e-03     0.00000000e+00    
           2.62635964e-04     1.74475962e-03     0.00000000e+00    
           2.64182105e-04     1.74609246e-03     0.00000000e+00    
           2.65895360e-04     1.74773391e-03     0.00000000e+00    
           2.67394353e-04     1.74997339e-03     0.00000000e+00    
           2.68615404e-04     1.75284268e-03     0.00000000e+00    
           2.69144570e-04     1.75622187e-03     0.00000000e+00    
           8.07422097e-04     2.06787349e-03     0.00000000e+00    
           8.05132498e-04     2.07058806e-03     0.00000000e+00    
           8.02308088e-04     2.07227934e-03     0.00000000e+00    
           7.99659232e-04     2.07285024e-03     0.00000000e+00    
           7.97207875e-04     2.07264512e-03     0.00000000e+00    
           7.95106054e-04     2.07199086e-03     0.00000000e+00    
           7.92924315e-04     2.07095686e-03     0.00000000e+00    
           7.90853112e-04     2.06913333e-03     0.00000000e+00    
           7.89114682e-04     2.06663739e-03     0.00000000e+00    
           7.88486155e-04     2.06349418e-03     0.00000000e+00    
           7.89656653e-04     2.05731485e-03     0.00000000e+00    
           7.91907019e-04     2.05459143e-03     0.00000000e+00    
           7.94761116e-04     2.05294532e-03     0.00000000e+00    
           7.97802815e-04     2.05218000e-03     0.00000000e+00    
           8.00467504e-04     2.05255905e-03     0.00000000e+00    
           8.02454539e-04     2.05347803e-03     0.00000000e+00    
           8.04366835e-04     2.05456419e-03     0.00000000e+00    
           8.06777505e-04     2.05637980e-03     0.00000000e+00    
           8.08102894e-04     2.05927948e-03     0.00000000e+00    
           8.08549055e-04     2.06210953e-03     0.00000000e+00    
           5.70635253e-04     7.01805111e-04     0.00000000e+00    
           5.66845760e-04     7.03060534e-04     0.00000000e+00    
           5.62666391e-04     7.03467755e-04     0.00000000e+00    
           5.58192085e-04     7.02302845e-04     0.00000000e+00    
           5.54915401e-04     6.99927681e-04     0.00000000e+00    
           5.52967191e-04     6.97080686e-04     0.00000000e+00    
           5.51541336e-04     6.93978625e-04     0.00000000e+00    
           5.50656812e-04     6.90784946e-04     0.00000000e+00    
           5.49859134e-04     6.87021180e-04     0.00000000e+00    
           5.50092664e-04     6.82774757e-04     0.00000000e+00    
           5.51523874e-04     6.78505749e-04     0.00000000e+00    
           5.57765889e-04     6.73140748e-04     0.00000000e+00    
           5.61233261e-04     6.72019029e-04     0.00000000e+00    
           5.64983871e-04     6.71662216e-04     0.00000000e+00    
           5.68888383e-04     6.72411057e-04     0.00000000e+00    
           5.72491554e-04     6.74111594e-04     0.00000000e+00    
           5.75397513e-04     6.76674943e-04     0.00000000e+00    
           5.77418134e-04     6.80061348e-04     0.00000000e+00    
           5.78498119e-04     6.83670747e-04     0.00000000e+00    
           5.79007552e-04     6.87624328e-04     0.00000000e+00    
           5.78636944e-04     6.91660738e-04     0.00000000e+00    
           5.77149098e-04     6.95879979e-04     0.00000000e+00    
           1.08466636e-04     4.63196891e-04     0.00000000e+00    
           1.12502930e-04     4.64222103e-04     0.00000000e+00    
           1.15952273e-04     4.66575817e-04     0.00000000e+00    
           1.18254990e-04     4.69752587e-04     0.00000000e+00    
           1.19583710e-04     4.73147229e-04     0.00000000e+00    
           1.20072531e-04     4.76675486e-04     0.00000000e+00    
           1.20646459e-04     4.80320246e-04     0.00000000e+00    
           1.20315242e-04     4.84952150e-04     0.00000000e+00    
           1.18344462e-04     4.88800521e-04     0.00000000e+00    
           1.12558148e-04     4.93229483e-04     0.00000000e+00    
           1.09093875e-04     4.94764186e-04     0.00000000e+00    
           1.04916398e-04     4.95623739e-04     0.00000000e+00    
           1.00625002e-04     4.95195971e-04     0.00000000e+00    
           9.68329477e-05     4.93286469e-04     0.00000000e+00    
           9.41830222e-05     4.90655948e-04     0.00000000e+00    
           9.21559404e-05     4.87621175e-04     0.00000000e+00    
           9.09451483e-05     4.84161166e-04     0.00000000e+00    
           9.03581313e-05     4.80403920e-04     0.00000000e+00    
           1.24129665e-03     4.72273183e-04     0.00000000e+00    
           1.24360691e-03     4.67872422e-04     0.00000000e+00    
           1.24716328e-03     4.65070072e-04     0.00000000e+00    
           1.25079730e-03     4.63810691e-04     0.00000000e+00    
           1.30615517e-04     1.09646679e-03     0.00000000e+00    
           1.33457477e-04     1.10028475e-03     0.00000000e+00    
           1.35084643e-04     1.10510108e-03     0.00000000e+00    
           1.35033013e-04     1.11003104e-03     0.00000000e+00    
           1.33854148e-04     1.11467391e-03     0.00000000e+00    
           1.31869587e-04     1.11890701e-03     0.00000000e+00    
           1.29131760e-04     1.12241448e-03     0.00000000e+00    
           1.25431965e-04     1.12537667e-03     0.00000000e+00    
           1.20659592e-04     1.12706085e-03     0.00000000e+00    
           1.15634051e-04     1.12737040e-03     0.00000000e+00    
           1.10839530e-04     1.12607901e-03     0.00000000e+00    
           1.02934639e-04     1.11983996e-03     0.00000000e+00    
           1.00605743e-04     1.11522118e-03     0.00000000e+00    
           9.97192037e-05     1.11055875e-03     0.00000000e+00    
           9.94553411e-05     1.10614940e-03     0.00000000e+00    
           1.00108788e-04     1.10177451e-03     0.00000000e+00    
           1.01616875e-04     1.09756610e-03     0.00000000e+00    
           1.04105464e-04     1.09374768e-03     0.00000000e+00    
           1.07786102e-04     1.09079026e-03     0.00000000e+00    
           1.12505462e-04     1.08906801e-03     0.00000000e+00    