<?xml version="1.0"?>
<VTKFile type="UnstructuredGrid" version="0.1">
  <UnstructuredGrid>
    <Piece NumberOfPoints="1034" NumberOfCells="1614">
      <Points>
        <DataArray type="Float32" NumberOfComponents="3">
           5.21582007e-01     5.11657000e-01     0.00000000e+00    
           5.07319987e-01     5.11657000e-01     0.00000000e+00    
           4.65243995e-01     5.17907977e-01     0.00000000e+00    
           4.65243995e-01     5.04921973e-01     0.00000000e+00    
           4.75246996e-01     5.11415005e-01     0.00000000e+00    
           5.33852994e-01     5.04921973e-01     0.00000000e+00    
           5.33852994e-01     5.17907977e-01     0.00000000e+00    
           4.83779997e-01     5.34618974e-01     0.00000000e+00    
           4.68984991e-01     5.34618974e-01     0.00000000e+00    
           4.76381987e-01     5.23841977e-01     0.00000000e+00    
           4.68984991e-01     4.66010004e-01     0.00000000e+00    
           4.83779997e-01     4.66010004e-01     0.00000000e+00    
           4.99920011e-01     5.34618974e-01     0.00000000e+00    
           4.89203990e-01     5.34618974e-01     0.00000000e+00    
           4.94562000e-01     5.22280991e-01     0.00000000e+00    
           4.89203990e-01     4.66010004e-01     0.00000000e+00    
           4.99920011e-01     4.66010004e-01     0.00000000e+00    
           5.32517016e-01     4.74112004e-01     0.00000000e+00    
           5.17961025e-01     4.74112004e-01     0.00000000e+00    
           5.33852994e-01     5.19801974e-01     0.00000000e+00    
           5.33852994e-01     5.29603004e-01     0.00000000e+00    
           5.19536972e-01     5.24702013e-01     0.00000000e+00    
           4.65243995e-01     5.29603004e-01     0.00000000e+00    
           4.65243995e-01     5.19801974e-01     0.00000000e+00    
           4.92487997e-01     5.17117977e-01     0.00000000e+00    
           4.76904988e-01     5.17117977e-01     0.00000000e+00    
           5.17996013e-01     5.27033985e-01     0.00000000e+00    
           5.04473984e-01     5.27033985e-01     0.00000000e+00    
           5.08446991e-01     4.83435005e-01     0.00000000e+00    
           4.94414002e-01     4.83435005e-01     0.00000000e+00    
           4.65243995e-01     4.83101994e-01     0.00000000e+00    
           4.65243995e-01     4.74415004e-01     0.00000000e+00    
           4.78336990e-01     4.78758007e-01     0.00000000e+00    
           5.33852994e-01     4.74415004e-01     0.00000000e+00    
           5.33852994e-01     4.83101994e-01     0.00000000e+00    
           4.80668008e-01     4.95810986e-01     0.00000000e+00    
           4.66084987e-01     4.95810986e-01     0.00000000e+00    
           4.93930012e-01     4.79214013e-01     0.00000000e+00    
           4.78967011e-01     4.79214013e-01     0.00000000e+00    
           5.09284973e-01     4.97658014e-01     0.00000000e+00    
           4.95503992e-01     4.97658014e-01     0.00000000e+00    
           5.33011973e-01     5.01751006e-01     0.00000000e+00    
           5.17829001e-01     5.01751006e-01     0.00000000e+00    
           4.95451003e-01     5.00564992e-01     0.00000000e+00    
           4.80922014e-01     5.00564992e-01     0.00000000e+00    
           5.25367022e-01     4.88312006e-01     0.00000000e+00    
           5.09521008e-01     4.88312006e-01     0.00000000e+00    
           4.65243995e-01     5.34618974e-01     0.00000000e+00    
           4.65243995e-01     4.66010004e-01     0.00000000e+00    
           5.33852994e-01     4.66010004e-01     0.00000000e+00    
           5.33852994e-01     5.34618974e-01     0.00000000e+00    
           5.21338999e-01     5.13502657e-01     0.00000000e+00    
           5.20626605e-01     5.15222490e-01     0.00000000e+00    
           5.19493401e-01     5.16699374e-01     0.00000000e+00    
           5.18016517e-01     5.17832637e-01     0.00000000e+00    
           5.16296625e-01     5.18545032e-01     0.00000000e+00    
           5.14451027e-01     5.18787980e-01     0.00000000e+00    
           5.12605369e-01     5.18545032e-01     0.00000000e+00    
           5.10885477e-01     5.17832637e-01     0.00000000e+00    
           5.09408593e-01     5.16699374e-01     0.00000000e+00    
           5.08275390e-01     5.15222490e-01     0.00000000e+00    
           5.07562995e-01     5.13502657e-01     0.00000000e+00    
           5.07562995e-01     5.09811342e-01     0.00000000e+00    
           5.08275390e-01     5.08091509e-01     0.00000000e+00    
           5.09408593e-01     5.06614625e-01     0.00000000e+00    
           5.10885477e-01     5.05481362e-01     0.00000000e+00    
           5.12605369e-01     5.04768968e-01     0.00000000e+00    
           5.14451027e-01     5.04526019e-01     0.00000000e+00    
           5.16296625e-01     5.04768968e-01     0.00000000e+00    
           5.18016517e-01     5.05481362e-01     0.00000000e+00    
           5.19493401e-01     5.06614625e-01     0.00000000e+00    
           5.20626605e-01     5.08091509e-01     0.00000000e+00    
           5.21338999e-01     5.09811342e-01     0.00000000e+00    
           4.66931671e-01     5.04409373e-01     0.00000000e+00    
           4.68693614e-01     5.04328012e-01     0.00000000e+00    
           4.70421344e-01     5.04682958e-01     0.00000000e+00    
           4.72008497e-01     5.05452335e-01     0.00000000e+00    
           4.73357379e-01     5.06588817e-01     0.00000000e+00    
           4.74384934e-01     5.08022368e-01     0.00000000e+00    
           4.75027919e-01     5.09664834e-01     0.00000000e+00    
           4.75028187e-01     5.13165236e-01     0.00000000e+00    
           4.74385172e-01     5.14807761e-01     0.00000000e+00    
           4.73357558e-01     5.16241372e-01     0.00000000e+00    
           4.72008646e-01     5.17377913e-01     0.00000000e+00    
           4.70421433e-01     5.18147290e-01     0.00000000e+00    
           4.68693614e-01     5.18502235e-01     0.00000000e+00    
           4.66931641e-01     5.18420875e-01     0.00000000e+00    
           5.32303810e-01     5.16964078e-01     0.00000000e+00    
           5.31043947e-01     5.15658796e-01     0.00000000e+00    
           5.30155540e-01     5.14077127e-01     0.00000000e+00    
           5.29696345e-01     5.12322068e-01     0.00000000e+00    
           5.29696345e-01     5.10507941e-01     0.00000000e+00    
           5.30155540e-01     5.08752882e-01     0.00000000e+00    
           5.31043947e-01     5.07171214e-01     0.00000000e+00    
           5.32303810e-01     5.05865932e-01     0.00000000e+00    
           4.68517244e-01     5.32760799e-01     0.00000000e+00    
           4.68509018e-01     5.30844629e-01     0.00000000e+00    
           4.68960851e-01     5.28982460e-01     0.00000000e+00    
           4.69846308e-01     5.27283132e-01     0.00000000e+00    
           4.71113682e-01     5.25845945e-01     0.00000000e+00    
           4.72688884e-01     5.24754822e-01     0.00000000e+00    
           4.74479854e-01     5.24073541e-01     0.00000000e+00    
           4.78284091e-01     5.24073601e-01     0.00000000e+00    
           4.80075032e-01     5.24754822e-01     0.00000000e+00    
           4.81650203e-01     5.25845885e-01     0.00000000e+00    
           4.82917547e-01     5.27283013e-01     0.00000000e+00    
           4.83803004e-01     5.28982282e-01     0.00000000e+00    
           4.84254897e-01     5.30844331e-01     0.00000000e+00    
           4.84246761e-01     5.32760441e-01     0.00000000e+00    
           4.82887864e-01     4.67691004e-01     0.00000000e+00    
           4.81620818e-01     4.69110936e-01     0.00000000e+00    
           4.80051905e-01     4.70188022e-01     0.00000000e+00    
           4.78271484e-01     4.70860153e-01     0.00000000e+00    
           4.76382166e-01     4.71088618e-01     0.00000000e+00    
           4.74492878e-01     4.70860243e-01     0.00000000e+00    
           4.72712427e-01     4.70188200e-01     0.00000000e+00    
           4.71143454e-01     4.69111174e-01     0.00000000e+00    
           4.69876349e-01     4.67691302e-01     0.00000000e+00    
           4.88103986e-01     5.33086061e-01     0.00000000e+00    
           4.87431526e-01     5.31323195e-01     0.00000000e+00    
           4.87231195e-01     5.29447019e-01     0.00000000e+00    
           4.87516224e-01     5.27581930e-01     0.00000000e+00    
           4.88267750e-01     5.25851250e-01     0.00000000e+00    
           4.89436030e-01     5.24369657e-01     0.00000000e+00    
           4.90943670e-01     5.23235261e-01     0.00000000e+00    
           4.92690891e-01     5.22523046e-01     0.00000000e+00    
           4.96432930e-01     5.22523701e-01     0.00000000e+00    
           4.98180002e-01     5.23235798e-01     0.00000000e+00    
           4.99687493e-01     5.24370134e-01     0.00000000e+00    
           5.00855684e-01     5.25851607e-01     0.00000000e+00    
           5.01607120e-01     5.27582109e-01     0.00000000e+00    
           5.01892149e-01     5.29447079e-01     0.00000000e+00    
           5.01691818e-01     5.31323016e-01     0.00000000e+00    
           5.01019418e-01     5.33085763e-01     0.00000000e+00    
           4.98371124e-01     4.67269689e-01     0.00000000e+00    
           4.96539861e-01     4.68064904e-01     0.00000000e+00    
           4.94562000e-01     4.68336672e-01     0.00000000e+00    
           4.92584139e-01     4.68064904e-01     0.00000000e+00    
           4.90752876e-01     4.67269689e-01     0.00000000e+00    
           5.32269001e-01     4.75995690e-01     0.00000000e+00    
           5.31541944e-01     4.77750987e-01     0.00000000e+00    
           5.30385315e-01     4.79258329e-01     0.00000000e+00    
           5.28877974e-01     4.80414927e-01     0.00000000e+00    
[...]
      <PointData>
        <DataArray type="Float32" Name="Displacement" NumberOfComponents="3">
           1.63408299e-03     1.46822340e-03     0.00000000e+00    
           1.61299284e-03     1.45399699e-03     0.00000000e+00    
           3.99714554e-05     1.47408969e-03     0.00000000e+00    
           4.67878235e-05     1.45619293e-03     0.00000000e+00    
           5.87935756e-05     1.47081958e-03     0.00000000e+00    
           2.24678777e-03     1.45619293e-03     0.00000000e+00    
           2.23997142e-03     1.47408969e-03     0.00000000e+00    
           3.30473500e-04     2.12581409e-03     0.00000000e+00    
           3.08930816e-04     2.13678880e-03     0.00000000e+00    
           3.12411226e-04     2.11536046e-03     0.00000000e+00    
           3.08930816e-04    -6.32112715e-05     0.00000000e+00    
           3.30473500e-04    -7.41859185e-05     0.00000000e+00    
           8.50560318e-04     2.05906993e-03     0.00000000e+00    
           8.34606297e-04     2.05304357e-03     0.00000000e+00    
           8.48920201e-04     2.03804928e-03     0.00000000e+00    
           8.34606297e-04    -1.46956358e-04     0.00000000e+00    
           8.50560318e-04    -1.40930089e-04     0.00000000e+00    
           1.97022501e-03     2.91471428e-04     0.00000000e+00    
           1.94908225e-03     2.88971147e-04     0.00000000e+00    
           2.00261991e-03     1.87837111e-03     0.00000000e+00    
           2.00345553e-03     1.89282838e-03     0.00000000e+00    
           1.98253174e-03     1.88625837e-03     0.00000000e+00    
          -1.96544381e-04     1.89282838e-03     0.00000000e+00    
          -1.97380039e-04     1.87837111e-03     0.00000000e+00    
           5.46979252e-04     1.67356839e-03     0.00000000e+00    
           5.24254981e-04     1.67790730e-03     0.00000000e+00    
           1.51834614e-03     1.93887542e-03     0.00000000e+00    
           1.49868021e-03     1.93725468e-03     0.00000000e+00    
           1.13777455e-03     6.42519211e-04     0.00000000e+00    
           1.11770548e-03     6.38814876e-04     0.00000000e+00    
           1.68513929e-04     4.15880117e-04     0.00000000e+00    
           1.71938489e-04     4.03865270e-04     0.00000000e+00    
           1.89119208e-04     4.14495298e-04     0.00000000e+00    
           2.37193843e-03     4.03865270e-04     0.00000000e+00    
           2.36851396e-03     4.15880117e-04     0.00000000e+00    
           2.32364124e-04     9.95720271e-04     0.00000000e+00    
           2.11313920e-04     1.01039687e-03     0.00000000e+00    
           6.05172710e-04     4.44444537e-04     0.00000000e+00    
           5.83970163e-04     4.40068659e-04     0.00000000e+00    
           1.17928686e-03     9.75410570e-04     0.00000000e+00    
           1.15939195e-03     9.92760295e-04     0.00000000e+00    
           1.93999801e-03     1.18803955e-03     0.00000000e+00    
           1.91773241e-03     1.18839473e-03     0.00000000e+00    
           6.75114687e-04     1.12335326e-03     0.00000000e+00    
           6.54509175e-04     1.13007519e-03     0.00000000e+00    
           1.67717575e-03     7.64517346e-04     0.00000000e+00    
           1.65393611e-03     7.60151015e-04     0.00000000e+00    
           0.00000000e+00     2.19999999e-03     0.00000000e+00    
           0.00000000e+00     0.00000000e+00     0.00000000e+00    
           2.19999999e-03     0.00000000e+00     0.00000000e+00    
           2.19999999e-03     2.19999999e-03     0.00000000e+00    
           1.63174549e-03     1.47126557e-03     0.00000000e+00    
           1.62890216e-03     1.47306279e-03     0.00000000e+00    
           1.62556069e-03     1.47424731e-03     0.00000000e+00    
           1.62209990e-03     1.47451169e-03     0.00000000e+00    
           1.61874876e-03     1.47354510e-03     0.00000000e+00    
           1.61583687e-03     1.47175370e-03     0.00000000e+00    
           1.61384908e-03     1.46947603e-03     0.00000000e+00    
           1.61231298e-03     1.46693632e-03     0.00000000e+00    
           1.61100854e-03     1.46399287e-03     0.00000000e+00    
           1.61074498e-03     1.46041531e-03     0.00000000e+00    
           1.61132286e-03     1.45709387e-03     0.00000000e+00    
           1.61515002e-03     1.45126099e-03     0.00000000e+00    
           1.61826797e-03     1.44947076e-03     0.00000000e+00    
           1.62146369e-03     1.44834770e-03     0.00000000e+00    
           1.62511237e-03     1.44804711e-03     0.00000000e+00    
           1.62874395e-03     1.44908647e-03     0.00000000e+00    
           1.63211324e-03     1.45097531e-03     0.00000000e+00    
           1.63463550e-03     1.45374238e-03     0.00000000e+00    
           1.63601607e-03     1.45708257e-03     0.00000000e+00    
           1.63619418e-03     1.46001042e-03     0.00000000e+00    
           1.63570349e-03     1.46259135e-03     0.00000000e+00    
           1.63497485e-03     1.46525993e-03     0.00000000e+00    
           4.98709669e-05     1.45572005e-03     0.00000000e+00    
           5.28489036e-05     1.45660818e-03     0.00000000e+00    
           5.50133009e-05     1.45808468e-03     0.00000000e+00    
           5.68743162e-05     1.45989028e-03     0.00000000e+00    
           5.84586960e-05     1.46227214e-03     0.00000000e+00    
           5.93935765e-05     1.46494689e-03     0.00000000e+00    
           5.94180892e-05     1.46803982e-03     0.00000000e+00    
           5.73008292e-05     1.47326186e-03     0.00000000e+00    
           5.55048282e-05     1.47516397e-03     0.00000000e+00    
           5.31958285e-05     1.47679378e-03     0.00000000e+00    
           5.05885218e-05     1.47778285e-03     0.00000000e+00    
           4.77222056e-05     1.47804280e-03     0.00000000e+00    
           4.46103077e-05     1.47769647e-03     0.00000000e+00    
           4.18321433e-05     1.47601496e-03     0.00000000e+00    
           2.23885127e-03     1.47207722e-03     0.00000000e+00    
           2.23792996e-03     1.46987347e-03     0.00000000e+00    
           2.23716977e-03     1.46684900e-03     0.00000000e+00    
           2.23735813e-03     1.46376481e-03     0.00000000e+00    
           2.23881844e-03     1.46071578e-03     0.00000000e+00    
           2.24083173e-03     1.45859818e-03     0.00000000e+00    
           2.24274863e-03     1.45755138e-03     0.00000000e+00    
           2.24466855e-03     1.45687442e-03     0.00000000e+00    
           3.06635018e-04     2.13410892e-03     0.00000000e+00    
           3.05289286e-04     2.13105697e-03     0.00000000e+00    
           3.04772693e-04     2.12799455e-03     0.00000000e+00    
           3.04803893e-04     2.12482805e-03     0.00000000e+00    
           3.05677444e-04     2.12187367e-03     0.00000000e+00    
           3.07342882e-04     2.11906829e-03     0.00000000e+00    
           3.09788855e-04     2.11676816e-03     0.00000000e+00    
           3.15271027e-04     2.11457931e-03     0.00000000e+00    
           3.17765167e-04     2.11427431e-03     0.00000000e+00    
           3.20452731e-04     2.11434858e-03     0.00000000e+00    
           3.23459652e-04     2.11499818e-03     0.00000000e+00    
           3.26338777e-04     2.11705058e-03     0.00000000e+00    
           3.28445778e-04     2.11960357e-03     0.00000000e+00    
           3.29943636e-04     2.12250324e-03     0.00000000e+00    
           3.30277602e-04    -7.10157547e-05     0.00000000e+00    
           3.29407485e-04    -6.78254291e-05     0.00000000e+00    
           3.27664980e-04    -6.51888477e-05     0.00000000e+00    
           3.25264526e-04    -6.28831549e-05     0.00000000e+00    
           3.22672800e-04    -6.16468096e-05     0.00000000e+00    
           3.20211344e-04    -6.08188566e-05     0.00000000e+00    
           3.17642960e-04    -6.02395558e-05     0.00000000e+00    
           3.14765814e-04    -6.03652588e-05     0.00000000e+00    
           3.11563170e-04    -6.14048331e-05     0.00000000e+00    
           8.33893835e-04     2.05001584e-03     0.00000000e+00    
           8.33905069e-04     2.04693247e-03     0.00000000e+00    
           8.34789185e-04     2.04401836e-03     0.00000000e+00    
           8.36298917e-04     2.04112590e-03     0.00000000e+00    
           8.38960113e-04     2.03912403e-03     0.00000000e+00    
           8.41343775e-04     2.03833682e-03     0.00000000e+00    
           8.43643036e-04     2.03793915e-03     0.00000000e+00    
           8.45980714e-04     2.03771680e-03     0.00000000e+00    
           8.51871853e-04     2.03912565e-03     0.00000000e+00    
           8.54356564e-04     2.04126094e-03     0.00000000e+00    
           8.56150582e-04     2.04402604e-03     0.00000000e+00    
           8.57079111e-04     2.04690709e-03     0.00000000e+00    
           8.56957166e-04     2.04985426e-03     0.00000000e+00    
           8.56333354e-04     2.05249363e-03     0.00000000e+00    
           8.55180493e-04     2.05514533e-03     0.00000000e+00    
           8.53086880e-04     2.05735094e-03     0.00000000e+00    
           8.47611111e-04    -1.40002259e-04     0.00000000e+00    
           8.44443683e-04    -1.39825788e-04     0.00000000e+00    
           8.41316883e-04    -1.40383199e-04     0.00000000e+00    
           8.38418317e-04    -1.41992074e-04     0.00000000e+00    
           8.36300955e-04    -1.44266480e-04     0.00000000e+00    
           1.96939893e-03     2.93666206e-04     0.00000000e+00    
           1.96839892e-03     2.95442092e-04     0.00000000e+00    
           1.96703058e-03     2.97579740e-04     0.00000000e+00    
           1.96441659e-03     2.99456180e-04     0.00000000e+00    
           1.96126755e-03     3.00406711e-04     0.00000000e+00    
           1.95828592e-03     3.00319225e-04     0.00000000e+00    
           1.95575575e-03     2.99458130e-04     0.00000000e+00    
           1.95383560e-03     2.98324361e-04     0.00000000e+00    
           1.95230613e-03     2.96961080e-04     0.00000000e+00    
           1.95046142e-03     2.94983154e-04     0.00000000e+00    
           1.94926641e-03     2.92234821e-04     0.00000000e+00    
           1.94967818e-03     2.86123628e-04     0.00000000e+00    
           1.95115164e-03     2.83252622e-04     0.00000000e+00    
           1.95327238e-03     2.81055458e-04     0.00000000e+00    
           1.95586192e-03     2.79729342e-04     0.00000000e+00    
           1.95853668e-03     2.79271480e-04     0.00000000e+00    
           1.96093624e-03     2.79355154e-04     0.00000000e+00    
           1.96334510e-03     2.79819418e-04     0.00000000e+00    
           1.96590833e-03     2.80854380e-04     0.00000000e+00    
           1.96817680e-03     2.82941386e-04     0.00000000e+00    
           1.96975283e-03     2.85628543e-04     0.00000000e+00    
           1.97056332e-03     2.88518466e-04     0.00000000e+00    
           2.00153165e-03     1.89482083e-03     0.00000000e+00    
           1.99924805e-03     1.89642899e-03     0.00000000e+00    
           1.99655164e-03     1.89757370e-03     0.00000000e+00    
           1.99350575e-03     1.89778081e-03     0.00000000e+00    
           1.99040142e-03     1.89737184e-03     0.00000000e+00    
           1.98749523e-03     1.89601304e-03     0.00000000e+00    
           1.98528985e-03     1.89374946e-03     0.00000000e+00    
           1.98370637e-03     1.89121452e-03     0.00000000e+00    
           1.98289333e-03     1.88869680e-03     0.00000000e+00    
           1.98255153e-03     1.88346056e-03     0.00000000e+00    
           1.98347867e-03     1.88073562e-03     0.00000000e+00    
           1.98513665e-03     1.87805528e-03     0.00000000e+00    
           1.98759232e-03     1.87607831e-03     0.00000000e+00    
           1.99011387e-03     1.87483639e-03     0.00000000e+00    
           1.99330179e-03     1.87420333e-03     0.00000000e+00    
           1.99625664e-03     1.87449716e-03     0.00000000e+00    
           1.99875399e-03     1.87550311e-03     0.00000000e+00    
           2.00073910e-03     1.87677459e-03     0.00000000e+00    
          -1.95782297e-04     1.88041932e-03     0.00000000e+00    
          -1.94664215e-04     1.88286905e-03     0.00000000e+00    
          -1.94295018e-04     1.88551971e-03     0.00000000e+00    
          -1.94589142e-04     1.88827259e-03     0.00000000e+00    
          -1.95355125e-04     1.89058995e-03     0.00000000e+00    
           5.47034317e-04     1.67657877e-03     0.00000000e+00    
           5.46311960e-04     1.67950615e-03     0.00000000e+00    
           5.44981915e-04     1.68156496e-03     0.00000000e+00    
           5.43795642e-04     1.68329477e-03     0.00000000e+00    
           5.42054418e-04     1.68504834e-03     0.00000000e+00    
           5.39377215e-04     1.68665021e-03     0.00000000e+00    
           5.36353211e-04     1.68691820e-03     0.00000000e+00    
           5.33861050e-04     1.68670900e-03     0.00000000e+00    
           5.31548110e-04     1.68614264e-03     0.00000000e+00    
           5.29305486e-04     1.68523972e-03     0.00000000e+00    
           5.26774325e-04     1.68340246e-03     0.00000000e+00    
           5.25148876e-04     1.68060069e-03     0.00000000e+00    
           5.24066389e-04     1.67496852e-03     0.00000000e+00    
           5.24482864e-04     1.67228305e-03     0.00000000e+00    
           5.25497075e-04     1.66949257e-03     0.00000000e+00    
           5.27301047e-04     1.66715251e-03     0.00000000e+00    
           5.29686338e-04     1.66544097e-03     0.00000000e+00    
           5.32522798e-04     1.66443235e-03     0.00000000e+00    
           5.34946506e-04     1.66411966e-03     0.00000000e+00    
           5.37323300e-04     1.66411430e-03     0.00000000e+00    
           5.40003763e-04     1.66466634e-03     0.00000000e+00    
           5.42460941e-04     1.66609127e-03     0.00000000e+00    
           5.44634124e-04     1.66818104e-03     0.00000000e+00    
           5.46195311e-04     1.67074997e-03     0.00000000e+00    
           1.51800760e-03     1.94154179e-03     0.00000000e+00    
           1.51646335e-03     1.94414123e-03     0.00000000e+00    
           1.51421782e-03     1.94620457e-03     0.00000000e+00    
           1.51165947e-03     1.94742600e-03     0.00000000e+00    
           1.50890206e-03     1.94778026e-03     0.00000000e+00    
           1.50629110e-03     1.94752170e-03     0.00000000e+00    
           1.50363345e-03     1.94666325e-03     0.00000000e+00    
           1.50134857e-03     1.94491446e-03     0.00000000e+00    
           1.49952248e-03     1.94260315e-03     0.00000000e+00    
           1.49877556e-03     1.93983782e-03     0.00000000e+00    
           1.49911130e-03     1.93448423e-03     0.00000000e+00    
           1.50056672e-03     1.93183252e-03     0.00000000e+00    
           1.50281179e-03     1.92976557e-03     0.00000000e+00    
           1.50571147e-03     1.92819512e-03     0.00000000e+00    
           1.50886562e-03     1.92806334e-03     0.00000000e+00    
           1.51135330e-03     1.92862004e-03     0.00000000e+00    
           1.51365856e-03     1.92948489e-03     0.00000000e+00    
           1.51620654e-03     1.93117536e-03     0.00000000e+00    
           1.51768688e-03     1.93387619e-03     0.00000000e+00    
           1.51831820e-03     1.93646678e-03     0.00000000e+00    
           1.13706209e-03     6.44807064e-04     0.00000000e+00    
           1.13578327e-03     6.46926754e-04     0.00000000e+00    
           1.13393913e-03     6.49136782e-04     0.00000000e+00    
           1.13107287e-03     6.50368165e-04     0.00000000e+00    
           1.12861849e-03     6.50639413e-04     0.00000000e+00    
           1.12670101e-03     6.50516828e-04     0.00000000e+00    
           1.12453988e-03     6.50094938e-04     0.00000000e+00    
           1.12197420e-03     6.49308902e-04     0.00000000e+00    
           1.11941213e-03     6.47126115e-04     0.00000000e+00    
           1.11800118e-03     6.44337677e-04     0.00000000e+00    
           1.11741154e-03     6.41468330e-04     0.00000000e+00    
           1.11842062e-03     6.36854500e-04     0.00000000e+00    
           1.11939653e-03     6.34929631e-04     0.00000000e+00    
           1.12086185e-03     6.32983050e-04     0.00000000e+00    
           1.12304417e-03     6.31477509e-04     0.00000000e+00    
           1.12572103e-03     6.30459690e-04     0.00000000e+00    
           1.12872233e-03     6.30152354e-04     0.00000000e+00    
           1.13154296e-03     6.30946655e-04     0.00000000e+00    
           1.13402959e-03     6.32345385e-04     0.00000000e+00    
           1.13616954e-03     6.34513795e-04     0.00000000e+00    
           1.13755127e-03     6.36957760e-04     0.00000000e+00    
           1.13816746e-03     6.39798294e-04     0.00000000e+00    
           1.74117551e-04     4.02265316e-04     0.00000000e+00    
           1.76876012e-04     4.00988763e-04     0.00000000e+00    
           1.79953509e-04     4.00816993e-04     0.00000000e+00    
           1.82738688e-04     4.01722704e-04     0.00000000e+00    
           1.84872595e-04     4.02907084e-04     0.00000000e+00    
           1.86636229e-04     4.04412800e-04     0.00000000e+00    
           1.88614606e-04     4.06508741e-04     0.00000000e+00    
           1.89676663e-04     4.09711036e-04     0.00000000e+00    
           1.89639613e-04     4.12439345e-04     0.00000000e+00    
           1.88353268e-04     4.16479947e-04     0.00000000e+00    
           1.87181402e-04     4.18647367e-04     0.00000000e+00    
           1.85187746e-04     4.20821831e-04     0.00000000e+00    
           1.82621152e-04     4.22428362e-04     0.00000000e+00    
           1.79554539e-04     4.22875863e-04     0.00000000e+00    
           1.76931426e-04     4.22625017e-04     0.00000000e+00    
           1.74336674e-04     4.21930949e-04     0.00000000e+00    
           1.72026339e-04     4.20439348e-04     0.00000000e+00    
           1.69993451e-04     4.18408512e-04     0.00000000e+00    
           2.36777728e-03     4.12868569e-04     0.00000000e+00    
           2.36802339e-03     4.09680913e-04     0.00000000e+00    
           2.36914866e-03     4.07275627e-04     0.00000000e+00    
           2.37044855e-03     4.05617058e-04     0.00000000e+00    
           2.33820872e-04     9.98193515e-04     0.00000000e+00    
           2.34829131e-04     1.00100355e-03     0.00000000e+00    
           2.35064494e-04     1.00450846e-03     0.00000000e+00    
           2.33971237e-04     1.00798346e-03     0.00000000e+00    
           2.31867714e-04     1.01103971e-03     0.00000000e+00    
           2.29274956e-04     1.01340306e-03     0.00000000e+00    
           2.26367978e-04     1.01481355e-03     0.00000000e+00    
           2.23256444e-04     1.01575104e-03     0.00000000e+00    
           2.19714217e-04     1.01569144e-03     0.00000000e+00    
           2.16327797e-04     1.01472356e-03     0.00000000e+00    
           2.13580919e-04     1.01277418e-03     0.00000000e+00    
           2.09602949e-04     1.00753270e-03     0.00000000e+00    
           2.08659709e-04     1.00391463e-03     0.00000000e+00    
           2.09048158e-04     1.00027223e-03     0.00000000e+00    
           2.10140235e-04     9.97140072e-04     0.00000000e+00    
           2.11935359e-04     9.94268106e-04     0.00000000e+00    
           2.14301646e-04     9.91985900e-04     0.00000000e+00    
           2.17276771e-04     9.90195666e-04     0.00000000e+00    
           2.20628237e-04     9.89493565e-04     0.00000000e+00    
           2.24211035e-04     9.89747699e-04     0.00000000e+00    