<?xml version="1.0"?>
<VTKFile type="UnstructuredGrid" version="0.1">
  <UnstructuredGrid>
    <Piece NumberOfPoints="1034" NumberOfCells="1614">
      <Points>
        <DataArray type="Float32" NumberOfComponents="3">
           5.21582007e-01     5.11657000e-01     0.00000000e+00    
           5.07319987e-01     5.11657000e-01     0.00000000e+00    
           4.65243995e-01     5.17907977e-01     0.00000000e+00    
           4.65243995e-01     5.04921973e-01     0.00000000e+00    
           4.75246996e-01     5.11415005e-01     0.00000000e+00    
           5.33852994e-01     5.04921973e-01     0.00000000e+00    
           5.33852994e-01     5.17907977e-01     0.00000000e+00    
           4.83779997e-01     5.34618974e-01     0.00000000e+00    
           4.68984991e-01     5.34618974e-01     0.00000000e+00    
           4.76381987e-01     5.23841977e-01     0.00000000e+00    
           4.68984991e-01     4.66010004e-01     0.00000000e+00    
           4.83779997e-01     4.66010004e-01     0.00000000e+00    
           4.99920011e-01     5.34618974e-01     0.00000000e+00    
           4.89203990e-01     5.34618974e-01     0.00000000e+00    
           4.94562000e-01     5.22280991e-01     0.00000000e+00    
           4.89203990e-01     4.66010004e-01     0.00000000e+00    
           4.99920011e-01     4.66010004e-01     0.00000000e+00    
           5.32517016e-01     4.74112004e-01     0.00000000e+00    
           5.17961025e-01     4.74112004e-01     0.00000000e+00    
           5.33852994e-01     5.19801974e-01     0.00000000e+00    
           5.33852994e-01     5.29603004e-01     0.00000000e+00    
           5.19536972e-01     5.24702013e-01     0.00000000e+00    
           4.65243995e-01     5.29603004e-01     0.00000000e+00    
           4.65243995e-01     5.19801974e-01     0.00000000e+00    
           4.92487997e-01     5.17117977e-01     0.00000000e+00    
           4.76904988e-01     5.17117977e-01     0.00000000e+00    
           5.17996013e-01     5.27033985e-01     0.00000000e+00    
           5.04473984e-01     5.27033985e-01     0.00000000e+00    
           5.08446991e-01     4.83435005e-01     0.00000000e+00    
           4.94414002e-01     4.83435005e-01     0.00000000e+00    
           4.65243995e-01     4.83101994e-01     0.00000000e+00    
           4.65243995e-01     4.74415004e-01     0.00000000e+00    
           4.78336990e-01     4.78758007e-01     0.00000000e+00    
           5.33852994e-01     4.74415004e-01     0.00000000e+00    
           5.33852994e-01     4.83101994e-01     0.00000000e+00    
           4.80668008e-01     4.95810986e-01     0.00000000e+00    
           4.66084987e-01     4.95810986e-01     0.00000000e+00    
           4.93930012e-01     4.79214013e-01     0.00000000e+00    
           4.78967011e-01     4.79214013e-01     0.00000000e+00    
           5.09284973e-01     4.97658014e-01     0.00000000e+00    
           4.95503992e-01     4.97658014e-01     0.00000000e+00    
           5.33011973e-01     5.01751006e-01     0.00000000e+00    
           5.17829001e-01     5.01751006e-01     0.00000000e+00    
           4.95451003e-01     5.00564992e-01     0.00000000e+00    
           4.80922014e-01     5.00564992e-01     0.00000000e+00    
           5.25367022e-01     4.88312006e-01     0.00000000e+00    
           5.09521008e-01     4.88312006e-01     0.00000000e+00    
           4.65243995e-01     5.34618974e-01     0.00000000e+00    
           4.65243995e-01     4.66010004e-01     0.00000000e+00    
           5.33852994e-01     4.66010004e-01     0.00000000e+00    
           5.33852994e-01     5.34618974e-01     0.00000000e+00    
           5.21338999e-01     5.13502657e-01     0.00000000e+00    
           5.20626605e-01     5.15222490e-01     0.00000000e+00    
           5.19493401e-01     5.16699374e-01     0.00000000e+00    
           5.18016517e-01     5.17832637e-01     0.00000000e+00    
           5.16296625e-01     5.18545032e-01     0.00000000e+00    
           5.14451027e-01     5.18787980e-01     0.00000000e+00    
           5.12605369e-01     5.18545032e-01     0.00000000e+00    
           5.10885477e-01     5.17832637e-01     0.00000000e+00    
           5.09408593e-01     5.16699374e-01     0.00000000e+00    
           5.08275390e-01     5.15222490e-01     0.00000000e+00    
           5.07562995e-01     5.13502657e-01     0.00000000e+00    
           5.07562995e-01     5.09811342e-01     0.00000000e+00    
           5.08275390e-01     5.08091509e-01     0.00000000e+00    
           5.09408593e-01     5.06614625e-01     0.00000000e+00    
           5.10885477e-01     5.05481362e-01     0.00000000e+00    
           5.12605369e-01     5.04768968e-01     0.00000000e+00    
           5.14451027e-01     5.04526019e-01     0.00000000e+00    
           5.16296625e-01     5.04768968e-01     0.00000000e+00    
           5.18016517e-01     5.05481362e-01     0.00000000e+00    
           5.19493401e-01     5.06614625e-01     0.00000000e+00    
           5.20626605e-01     5.08091509e-01     0.00000000e+00    
           5.21338999e-01     5.09811342e-01     0.00000000e+00    
           4.66931671e-01     5.04409373e-01     0.00000000e+00    
           4.68693614e-01     5.04328012e-01     0.00000000e+00    
           4.70421344e-01     5.04682958e-01     0.00000000e+00    
           4.72008497e-01     5.05452335e-01     0.00000000e+00    
           4.73357379e-01     5.06588817e-01     0.00000000e+00    
           4.74384934e-01     5.08022368e-01     0.00000000e+00    
           4.75027919e-01     5.09664834e-01     0.00000000e+00    
           4.75028187e-01     5.13165236e-01     0.00000000e+00    
           4.74385172e-01     5.14807761e-01     0.00000000e+00    
           4.73357558e-01     5.16241372e-01     0.00000000e+00    
           4.72008646e-01     5.17377913e-01     0.00000000e+00    
           4.70421433e-01     5.18147290e-01     0.00000000e+00    
           4.68693614e-01     5.18502235e-01     0.00000000e+00    
           4.66931641e-01     5.18420875e-01     0.00000000e+00    
           5.32303810e-01     5.16964078e-01     0.00000000e+00    
           5.31043947e-01     5.15658796e-01     0.00000000e+00    
           5.30155540e-01     5.14077127e-01     0.00000000e+00    
           5.29696345e-01     5.12322068e-01     0.00000000e+00    
           5.29696345e-01     5.10507941e-01     0.00000000e+00    
           5.30155540e-01     5.08752882e-01     0.00000000e+00    
           5.31043947e-01     5.07171214e-01     0.00000000e+00    
           5.32303810e-01     5.05865932e-01     0.00000000e+00    
           4.68517244e-01     5.32760799e-01     0.00000000e+00    
           4.68509018e-01     5.30844629e-01     0.00000000e+00    
           4.68960851e-01     5.28982460e-01     0.00000000e+00    
           4.69846308e-01     5.27283132e-01     0.00000000e+00    
           4.71113682e-01     5.25845945e-01     0.00000000e+00    
           4.72688884e-01     5.24754822e-01     0.00000000e+00    
           4.74479854e-01     5.24073541e-01     0.00000000e+00    
           4.78284091e-01     5.24073601e-01     0.00000000e+00    
           4.80075032e-01     5.24754822e-01     0.00000000e+00    
           4.81650203e-01     5.25845885e-01     0.00000000e+00    
           4.82917547e-01     5.27283013e-01     0.00000000e+00    
           4.83803004e-01     5.28982282e-01     0.00000000e+00    
           4.84254897e-01     5.30844331e-01     0.00000000e+00    
           4.84246761e-01     5.32760441e-01     0.00000000e+00    
           4.82887864e-01     4.67691004e-01     0.00000000e+00    
           4.81620818e-01     4.69110936e-01     0.00000000e+00    
           4.80051905e-01     4.70188022e-01     0.00000000e+00    
           4.78271484e-01     4.70860153e-01     0.00000000e+00    
           4.76382166e-01     4.71088618e-01     0.00000000e+00    
           4.74492878e-01     4.70860243e-01     0.00000000e+00    
           4.72712427e-01     4.70188200e-01     0.00000000e+00    
           4.71143454e-01     4.69111174e-01     0.00000000e+00    
           4.69876349e-01     4.67691302e-01     0.00000000e+00    
           4.88103986e-01     5.33086061e-01     0.00000000e+00    
           4.87431526e-01     5.31323195e-01     0.00000000e+00    
           4.87231195e-01     5.29447019e-01     0.00000000e+00    
           4.87516224e-01     5.27581930e-01     0.00000000e+00    
           4.88267750e-01     5.25851250e-01     0.00000000e+00    
           4.89436030e-01     5.24369657e-01     0.00000000e+00    
           4.90943670e-01     5.23235261e-01     0.00000000e+00    
           4.92690891e-01     5.22523046e-01     0.00000000e+00    
           4.96432930e-01     5.22523701e-01     0.00000000e+00    
           4.98180002e-01     5.23235798e-01     0.00000000e+00    
           4.99687493e-01     5.24370134e-01     0.00000000e+00    
           5.00855684e-01     5.25851607e-01     0.00000000e+00    
           5.01607120e-01     5.27582109e-01     0.00000000e+00    
           5.01892149e-01     5.29447079e-01     0.00000000e+00    
           5.01691818e-01     5.31323016e-01     0.00000000e+00    
           5.01019418e-01     5.33085763e-01     0.00000000e+00    
           4.98371124e-01     4.67269689e-01     0.00000000e+00    
           4.96539861e-01     4.68064904e-01     0.00000000e+00    
           4.94562000e-01     4.68336672e-01     0.00000000e+00    
           4.92584139e-01     4.68064904e-01     0.00000000e+00    
           4.90752876e-01     4.67269689e-01     0.00000000e+00    
           5.32269001e-01     4.75995690e-01     0.00000000e+00    
           5.31541944e-01     4.77750987e-01     0.00000000e+00    
           5.30385315e-01     4.79258329e-01     0.00000000e+00    
           5.28877974e-01     4.80414927e-01     0.00000000e+00    
[...]
      <PointData>
        <DataArray type="Float32" Name="Displacement" NumberOfComponents="3">
           1.02310150e-03     9.10114439e-04     0.00000000e+00    
           1.00220472e-03     8.99921462e-04     0.00000000e+00    
           7.85079646e-06     9.23598185e-04     0.00000000e+00    
           1.21768689e-05     9.05741937e-04     0.00000000e+00    
           2.53252965e-05     9.18710895e-04     0.00000000e+00    
           1.36217684e-03     9.05741937e-04     0.00000000e+00    
           1.35785085e-03     9.23598185e-04     0.00000000e+00    
           2.01492003e-04     1.31319405e-03     0.00000000e+00    
           1.80227362e-04     1.32206129e-03     0.00000000e+00    
           1.85168275e-04     1.30159478e-03     0.00000000e+00    
           1.80227362e-04    -2.79386913e-05     0.00000000e+00    
           2.01492003e-04    -3.68059373e-05     0.00000000e+00    
           5.02987881e-04     1.27028371e-03     0.00000000e+00    
           4.86681703e-04     1.27010781e-03     0.00000000e+00    
           4.94389271e-04     1.25261373e-03     0.00000000e+00    
           4.86681703e-04    -7.98921392e-05     0.00000000e+00    
           5.02987881e-04    -7.97162429e-05     0.00000000e+00    
           1.22664077e-03     1.91597021e-04     0.00000000e+00    
           1.20572583e-03     1.93952466e-04     0.00000000e+00    
           1.23363058e-03     1.15582719e-03     0.00000000e+00    
           1.23624736e-03     1.17032195e-03     0.00000000e+00    
           1.21461332e-03     1.16617186e-03     0.00000000e+00    
          -1.13752605e-04     1.17032195e-03     0.00000000e+00    
          -1.16369432e-04     1.15582719e-03     0.00000000e+00    
           3.17469705e-04     1.04854535e-03     0.00000000e+00    
           2.95036763e-04     1.05377217e-03     0.00000000e+00    
           9.49555717e-04     1.18898519e-03     0.00000000e+00    
           9.30014881e-04     1.18420890e-03     0.00000000e+00    
           6.90922316e-04     4.20508411e-04     0.00000000e+00    
           6.71051617e-04     4.15338553e-04     0.00000000e+00    
           1.04543979e-04     2.60703353e-04     0.00000000e+00    
           1.06298401e-04     2.48709635e-04     0.00000000e+00    
           1.24249622e-04     2.56863219e-04     0.00000000e+00    
           1.45629840e-03     2.48709635e-04     0.00000000e+00    
           1.45454402e-03     2.60703353e-04     0.00000000e+00    
           1.39948956e-04     6.34972239e-04     0.00000000e+00    
           1.19092205e-04     6.39616337e-04     0.00000000e+00    
           3.57877230e-04     2.85221235e-04     0.00000000e+00    
           3.36806930e-04     2.74688442e-04     0.00000000e+00    
           7.17947900e-04     5.96284983e-04     0.00000000e+00    
           6.98053744e-04     6.12002332e-04     0.00000000e+00    
           1.19298638e-03     7.51895073e-04     0.00000000e+00    
           1.17078214e-03     7.50698557e-04     0.00000000e+00    
           3.98257078e-04     7.00167555e-04     0.00000000e+00    
           3.77722230e-04     7.10115652e-04     0.00000000e+00    
           1.02838024e-03     4.93260159e-04     0.00000000e+00    
           1.00520672e-03     4.85379569e-04     0.00000000e+00    
           0.00000000e+00     1.35000004e-03     0.00000000e+00    
           0.00000000e+00     0.00000000e+00     0.00000000e+00    
           1.35000004e-03     0.00000000e+00     0.00000000e+00    
           1.35000004e-03     1.35000004e-03     0.00000000e+00    
           1.02123956e-03     9.13468539e-04     0.00000000e+00    
           1.01882301e-03     9.15487006e-04     0.00000000e+00    
           1.01589249e-03     9.16929217e-04     0.00000000e+00    
           1.01281202e-03     9.17564787e-04     0.00000000e+00    
           1.00973155e-03     9.17069148e-04     0.00000000e+00    
           1.00695004e-03     9.15770768e-04     0.00000000e+00    
           1.00502349e-03     9.14018776e-04     0.00000000e+00    
           1.00343488e-03     9.11996176e-04     0.00000000e+00    
           1.00187131e-03     9.09564376e-04     0.00000000e+00    
           1.00104173e-03     9.06283443e-04     0.00000000e+00    
           1.00107235e-03     9.03052627e-04     0.00000000e+00    
           1.00390962e-03     8.97036807e-04     0.00000000e+00    
           1.00653432e-03     8.95152101e-04     0.00000000e+00    
           1.00926077e-03     8.93865363e-04     0.00000000e+00    
           1.01238198e-03     8.93247488e-04     0.00000000e+00    
           1.01568387e-03     8.93718156e-04     0.00000000e+00    
           1.01906317e-03     8.94970319e-04     0.00000000e+00    
           1.02176762e-03     8.97233491e-04     0.00000000e+00    
           1.02334598e-03     9.00056912e-04     0.00000000e+00    
           1.02381525e-03     9.02546279e-04     0.00000000e+00    
           1.02371525e-03     9.04786866e-04     0.00000000e+00    
           1.02341664e-03     9.07202251e-04     0.00000000e+00    
           1.52393732e-05     9.04895598e-04     0.00000000e+00    
           1.82418407e-05     9.05527850e-04     0.00000000e+00    
           2.03583331e-05     9.06685716e-04     0.00000000e+00    
           2.22664257e-05     9.08171525e-04     0.00000000e+00    
           2.40543795e-05     9.10260133e-04     0.00000000e+00    
           2.53236576e-05     9.12778545e-04     0.00000000e+00    
           2.56838030e-05     9.15916869e-04     0.00000000e+00    
           2.41306770e-05     9.21104744e-04     0.00000000e+00    
           2.26883585e-05     9.22992651e-04     0.00000000e+00    
           2.07303328e-05     9.24767926e-04     0.00000000e+00    
           1.83612283e-05     9.26020206e-04     0.00000000e+00    
           1.56164897e-05     9.26610781e-04     0.00000000e+00    
           1.24652770e-05     9.26573644e-04     0.00000000e+00    
           9.69279881e-06     9.25156171e-04     0.00000000e+00    
           1.35665317e-03     9.21914470e-04     0.00000000e+00    
           1.35564187e-03     9.20033955e-04     0.00000000e+00    
           1.35454198e-03     9.17172234e-04     0.00000000e+00    
           1.35429692e-03     9.14047821e-04     0.00000000e+00    
           1.35549123e-03     9.10874689e-04     0.00000000e+00    
           1.35711557e-03     9.08721704e-04     0.00000000e+00    
           1.35867111e-03     9.07563430e-04     0.00000000e+00    
           1.36029709e-03     9.06677742e-04     0.00000000e+00    
           1.78136601e-04     1.31908280e-03     0.00000000e+00    
           1.77175694e-04     1.31596113e-03     0.00000000e+00    
           1.76924252e-04     1.31310476e-03     0.00000000e+00    
           1.77115624e-04     1.31017831e-03     0.00000000e+00    
           1.78082511e-04     1.30742241e-03     0.00000000e+00    
           1.79894385e-04     1.30479492e-03     0.00000000e+00    
           1.82497330e-04     1.30270957e-03     0.00000000e+00    
           1.87949190e-04     1.30107696e-03     0.00000000e+00    
           1.90273830e-04     1.30098837e-03     0.00000000e+00    
           1.92749518e-04     1.30126032e-03     0.00000000e+00    
           1.95521949e-04     1.30204915e-03     0.00000000e+00    
           1.98172624e-04     1.30425813e-03     0.00000000e+00    
           1.99980001e-04     1.30685931e-03     0.00000000e+00    
           2.01233706e-04     1.30974932e-03     0.00000000e+00    
           2.00886221e-04    -3.36077392e-05     0.00000000e+00    
           1.99647155e-04    -3.06493857e-05     0.00000000e+00    
           1.97839196e-04    -2.83496065e-05     0.00000000e+00    
           1.95518034e-04    -2.63684360e-05     0.00000000e+00    
           1.93058644e-04    -2.53957514e-05     0.00000000e+00    
           1.90782579e-04    -2.48141841e-05     0.00000000e+00    
           1.88441481e-04    -2.44497478e-05     0.00000000e+00    
           1.85836645e-04    -2.47389453e-05     0.00000000e+00    
           1.82746269e-04    -2.59048975e-05     0.00000000e+00    
           4.85127093e-04     1.26754399e-03     0.00000000e+00    
           4.84290736e-04     1.26478868e-03     0.00000000e+00    
           4.84204327e-04     1.26206479e-03     0.00000000e+00    
           4.84730175e-04     1.25906547e-03     0.00000000e+00    
           4.86480247e-04     1.25672517e-03     0.00000000e+00    
           4.88043734e-04     1.25541375e-03     0.00000000e+00    
           4.89701692e-04     1.25431886e-03     0.00000000e+00    
           4.91534709e-04     1.25333248e-03     0.00000000e+00    
           4.97750589e-04     1.25267473e-03     0.00000000e+00    
           5.00816852e-04     1.25411130e-03     0.00000000e+00    
           5.03154413e-04     1.25624530e-03     0.00000000e+00    
           5.04639815e-04     1.25843496e-03     0.00000000e+00    
           5.05275442e-04     1.26060436e-03     0.00000000e+00    
           5.05640171e-04     1.26273581e-03     0.00000000e+00    
           5.05550939e-04     1.26517576e-03     0.00000000e+00    
           5.04625961e-04     1.26773980e-03     0.00000000e+00    
           5.00584894e-04    -7.78027825e-05     0.00000000e+00    
           4.97681496e-04    -7.65902878e-05     0.00000000e+00    
           4.94658598e-04    -7.61325937e-05     0.00000000e+00    
           4.91634361e-04    -7.66988378e-05     0.00000000e+00    
           4.89098951e-04    -7.79824913e-05     0.00000000e+00    
           1.22642145e-03     1.93817425e-04     0.00000000e+00    
           1.22597092e-03     1.95754910e-04     0.00000000e+00    
           1.22510758e-03     1.98101901e-04     0.00000000e+00    
           1.22272072e-03     2.00622773e-04     0.00000000e+00    
           1.21952640e-03     2.02090261e-04     0.00000000e+00    
           1.21663406e-03     2.02399373e-04     0.00000000e+00    
           1.21433265e-03     2.02298965e-04     0.00000000e+00    
           1.21236301e-03     2.01833653e-04     0.00000000e+00    
           1.21065998e-03     2.01094052e-04     0.00000000e+00    
           1.20850827e-03     1.99689777e-04     0.00000000e+00    
           1.20667450e-03     1.97303787e-04     0.00000000e+00    
           1.20566110e-03     1.90827341e-04     0.00000000e+00    
           1.20668800e-03     1.87472848e-04     0.00000000e+00    
           1.20846345e-03     1.84897930e-04     0.00000000e+00    
           1.21064123e-03     1.83168508e-04     0.00000000e+00    
           1.21294067e-03     1.82223783e-04     0.00000000e+00    
           1.21510471e-03     1.81713214e-04     0.00000000e+00    
           1.21741672e-03     1.81543044e-04     0.00000000e+00    
           1.22006249e-03     1.81966621e-04     0.00000000e+00    
           1.22279592e-03     1.83471057e-04     0.00000000e+00    
           1.22500618e-03     1.85913552e-04     0.00000000e+00    
           1.22640247e-03     1.88722173e-04     0.00000000e+00    
           1.23460602e-03     1.17258192e-03     0.00000000e+00    
           1.23244757e-03     1.17446994e-03     0.00000000e+00    
           1.22984161e-03     1.17584574e-03     0.00000000e+00    
           1.22704054e-03     1.17629196e-03     0.00000000e+00    
           1.22415321e-03     1.17627601e-03     0.00000000e+00    
           1.22102851e-03     1.17538299e-03     0.00000000e+00    
           1.21836679e-03     1.17326668e-03     0.00000000e+00    
           1.21646980e-03     1.17080507e-03     0.00000000e+00    
           1.21533778e-03     1.16846059e-03     0.00000000e+00    
           1.21427118e-03     1.16338546e-03     0.00000000e+00    
           1.21485605e-03     1.16056134e-03     0.00000000e+00    
           1.21622626e-03     1.15773536e-03     0.00000000e+00    
           1.21838297e-03     1.15549250e-03     0.00000000e+00    
           1.22074678e-03     1.15389423e-03     0.00000000e+00    
           1.22400827e-03     1.15289749e-03     0.00000000e+00    
           1.22701959e-03     1.15291763e-03     0.00000000e+00    
           1.22951949e-03     1.15354860e-03     0.00000000e+00    
           1.23161147e-03     1.15450693e-03     0.00000000e+00    
          -1.14465525e-04     1.15770858e-03     0.00000000e+00    
          -1.12993992e-04     1.16020767e-03     0.00000000e+00    
          -1.12357120e-04     1.16294634e-03     0.00000000e+00    
          -1.12446876e-04     1.16574299e-03     0.00000000e+00    
          -1.12894770e-04     1.16800540e-03     0.00000000e+00    
           3.17589875e-04     1.05171965e-03     0.00000000e+00    
           3.16898368e-04     1.05469266e-03     0.00000000e+00    
           3.15859623e-04     1.05670805e-03     0.00000000e+00    
           3.14868928e-04     1.05850643e-03     0.00000000e+00    
           3.13272787e-04     1.06035592e-03     0.00000000e+00    
           3.10642063e-04     1.06211193e-03     0.00000000e+00    
           3.07641836e-04     1.06252765e-03     0.00000000e+00    
           3.05166235e-04     1.06247736e-03     0.00000000e+00    
           3.02846252e-04     1.06204825e-03     0.00000000e+00    
           3.00637272e-04     1.06129306e-03     0.00000000e+00    
           2.97890219e-04     1.05953997e-03     0.00000000e+00    
           2.96059123e-04     1.05654472e-03     0.00000000e+00    
           2.94772413e-04     1.05082779e-03     0.00000000e+00    
           2.95014557e-04     1.04820821e-03     0.00000000e+00    
           2.95843609e-04     1.04539329e-03     0.00000000e+00    
           2.97588354e-04     1.04287942e-03     0.00000000e+00    
           2.99983454e-04     1.04109140e-03     0.00000000e+00    
           3.02738685e-04     1.04003586e-03     0.00000000e+00    
           3.04954272e-04     1.03956996e-03     0.00000000e+00    
           3.07126640e-04     1.03935692e-03     0.00000000e+00    
           3.09697789e-04     1.03969441e-03     0.00000000e+00    
           3.12249904e-04     1.04086869e-03     0.00000000e+00    
           3.14681063e-04     1.04287942e-03     0.00000000e+00    
           3.16501508e-04     1.04554347e-03     0.00000000e+00    
           9.48725909e-04     1.19140593e-03     0.00000000e+00    
           9.46817687e-04     1.19381712e-03     0.00000000e+00    
           9.44201136e-04     1.19562924e-03     0.00000000e+00    
           9.41299833e-04     1.19653426e-03     0.00000000e+00    
           9.38187062e-04     1.19647535e-03     0.00000000e+00    
           9.35300195e-04     1.19564100e-03     0.00000000e+00    
           9.32649127e-04     1.19407533e-03     0.00000000e+00    
           9.30764130e-04     1.19173934e-03     0.00000000e+00    
           9.29571455e-04     1.18911616e-03     0.00000000e+00    
           9.29509406e-04     1.18648983e-03     0.00000000e+00    
           9.30909126e-04     1.18193042e-03     0.00000000e+00    
           9.32603551e-04     1.17947138e-03     0.00000000e+00    
           9.35226155e-04     1.17747998e-03     0.00000000e+00    
           9.38738172e-04     1.17610302e-03     0.00000000e+00    
           9.42083134e-04     1.17647008e-03     0.00000000e+00    
           9.44445143e-04     1.17749546e-03     0.00000000e+00    
           9.46501503e-04     1.17876276e-03     0.00000000e+00    
           9.48811299e-04     1.18083612e-03     0.00000000e+00    
           9.49898851e-04     1.18390634e-03     0.00000000e+00    
           9.50053101e-04     1.18663732e-03     0.00000000e+00    
           6.90151472e-04     4.22621873e-04     0.00000000e+00    
           6.88824512e-04     4.24559374e-04     0.00000000e+00    
           6.86985673e-04     4.26669925e-04     0.00000000e+00    
           6.84044906e-04     4.27881052e-04     0.00000000e+00    
           6.81573001e-04     4.28057072e-04     0.00000000e+00    
           6.79660356e-04     4.27806459e-04     0.00000000e+00    
           6.77543110e-04     4.27230058e-04     0.00000000e+00    
           6.74951123e-04     4.26339102e-04     0.00000000e+00    
           6.72247843e-04     4.23865684e-04     0.00000000e+00    
           6.70943700e-04     4.20747150e-04     0.00000000e+00    
           6.70573383e-04     4.17796720e-04     0.00000000e+00    
           6.71776943e-04     4.13635396e-04     0.00000000e+00    
           6.72765425e-04     4.11946763e-04     0.00000000e+00    
           6.74171490e-04     4.10278240e-04     0.00000000e+00    
           6.76238735e-04     4.08894062e-04     0.00000000e+00    
           6.78876939e-04     4.07893764e-04     0.00000000e+00    
           6.81919744e-04     4.07582236e-04     0.00000000e+00    
           6.84859813e-04     4.08413005e-04     0.00000000e+00    
           6.87512918e-04     4.09949658e-04     0.00000000e+00    
           6.89757057e-04     4.12405003e-04     0.00000000e+00    
           6.91035704e-04     4.15083108e-04     0.00000000e+00    
           6.91426103e-04     4.17984993e-04     0.00000000e+00    
           1.08228640e-04     2.46907788e-04     0.00000000e+00    
           1.10891524e-04     2.45264557e-04     0.00000000e+00    
           1.13930400e-04     2.44822237e-04     0.00000000e+00    
           1.16575466e-04     2.45374802e-04     0.00000000e+00    
           1.18668402e-04     2.46178912e-04     0.00000000e+00    
           1.20491255e-04     2.47332151e-04     0.00000000e+00    
           1.22724843e-04     2.49144359e-04     0.00000000e+00    
           1.24143480e-04     2.52262340e-04     0.00000000e+00    
           1.24431288e-04     2.54873099e-04     0.00000000e+00    
           1.23809004e-04     2.58862303e-04     0.00000000e+00    
           1.22922705e-04     2.61128996e-04     0.00000000e+00    
           1.21114957e-04     2.63595226e-04     0.00000000e+00    
           1.18569180e-04     2.65428302e-04     0.00000000e+00    
           1.15787523e-04     2.66052055e-04     0.00000000e+00    
           1.13475304e-04     2.66101968e-04     0.00000000e+00    
           1.11049252e-04     2.65766546e-04     0.00000000e+00    
           1.08720677e-04     2.64725764e-04     0.00000000e+00    
           1.06416112e-04     2.63050315e-04     0.00000000e+00    
           1.45345216e-03     2.57681910e-04     0.00000000e+00    
           1.45340944e-03     2.54526152e-04     0.00000000e+00    
           1.45417789e-03     2.52218248e-04     0.00000000e+00    
           1.45513087e-03     2.50540616e-04     0.00000000e+00    
           1.40124524e-04     6.37144491e-04     0.00000000e+00    
           1.39926255e-04     6.39361795e-04     0.00000000e+00    
           1.39153664e-04     6.42012106e-04     0.00000000e+00    
           1.37172712e-04     6.44559914e-04     0.00000000e+00    
           1.34348433e-04     6.46427099e-04     0.00000000e+00    
           1.31531953e-04     6.47367735e-04     0.00000000e+00    
           1.28941610e-04     6.47459703e-04     0.00000000e+00    
           1.26478786e-04     6.47239736e-04     0.00000000e+00    
           1.23822145e-04     6.46192173e-04     0.00000000e+00    
           1.21572470e-04     6.44484884e-04     0.00000000e+00    
           1.20098201e-04     6.42153434e-04     0.00000000e+00    
           1.18693322e-04     6.36801647e-04     0.00000000e+00    
           1.19074888e-04     6.33475953e-04     0.00000000e+00    
           1.20777215e-04     6.30533323e-04     0.00000000e+00    
           1.22737372e-04     6.28561829e-04     0.00000000e+00    
           1.24897182e-04     6.27093425e-04     0.00000000e+00    
           1.27166961e-04     6.26131485e-04     0.00000000e+00    
           1.29661508e-04     6.25619839e-04     0.00000000e+00    
           1.32385088e-04     6.25988469e-04     0.00000000e+00    
           1.35191367e-04     6.27211179e-04     0.00000000e+00    