<?xml version="1.0"?>
<VTKFile type="UnstructuredGrid" version="0.1">
  <UnstructuredGrid>
    <Piece NumberOfPoints="1034" NumberOfCells="1614">
      <Points>
        <DataArray type="Float32" NumberOfComponents="3">
           5.21582007e-01     5.11657000e-01     0.00000000e+00    
           5.07319987e-01     5.11657000e-01     0.00000000e+00    
           4.65243995e-01     5.17907977e-01     0.00000000e+00    
           4.65243995e-01     5.04921973e-01     0.00000000e+00    
           4.75246996e-01     5.11415005e-01     0.00000000e+00    
           5.33852994e-01     5.04921973e-01     0.00000000e+00    
           5.33852994e-01     5.17907977e-01     0.00000000e+00    
           4.83779997e-01     5.34618974e-01     0.00000000e+00    
           4.68984991e-01     5.34618974e-01     0.00000000e+00    
           4.76381987e-01     5.23841977e-01     0.00000000e+00    
           4.68984991e-01     4.66010004e-01     0.00000000e+00    
           4.83779997e-01     4.66010004e-01     0.00000000e+00    
           4.99920011e-01     5.34618974e-01     0.00000000e+00    
           4.89203990e-01     5.34618974e-01     0.00000000e+00    
           4.94562000e-01     5.22280991e-01     0.00000000e+00    
           4.89203990e-01     4.66010004e-01     0.00000000e+00    
           4.99920011e-01     4.66010004e-01     0.00000000e+00    
           5.32517016e-01     4.74112004e-01     0.00000000e+00    
           5.17961025e-01     4.74112004e-01     0.00000000e+00    
           5.33852994e-01     5.19801974e-01     0.00000000e+00    
           5.33852994e-01     5.29603004e-01     0.00000000e+00    
           5.19536972e-01     5.24702013e-01     0.00000000e+00    
           4.65243995e-01     5.29603004e-01     0.00000000e+00    
           4.65243995e-01     5.19801974e-01     0.00000000e+00    
           4.92487997e-01     5.17117977e-01     0.00000000e+00    
           4.76904988e-01     5.17117977e-01     0.00000000e+00    
           5.17996013e-01     5.27033985e-01     0.00000000e+00    
           5.04473984e-01     5.27033985e-01     0.00000000e+00    
           5.08446991e-01     4.83435005e-01     0.00000000e+00    
           4.94414002e-01     4.83435005e-01     0.00000000e+00    
           4.65243995e-01     4.83101994e-01     0.00000000e+00    
           4.65243995e-01     4.74415004e-01     0.00000000e+00    
           4.78336990e-01     4.78758007e-01     0.00000000e+00    
           5.33852994e-01     4.74415004e-01     0.00000000e+00    
           5.33852994e-01     4.83101994e-01     0.00000000e+00    
           4.80668008e-01     4.95810986e-01     0.00000000e+00    
           4.66084987e-01     4.95810986e-01     0.00000000e+00    
           4.93930012e-01     4.79214013e-01     0.00000000e+00    
           4.78967011e-01     4.79214013e-01     0.00000000e+00    
           5.09284973e-01     4.97658014e-01     0.00000000e+00    
           4.95503992e-01     4.97658014e-01     0.00000000e+00    
           5.33011973e-01     5.01751006e-01     0.00000000e+00    
           5.17829001e-01     5.01751006e-01     0.00000000e+00    
           4.95451003e-01     5.00564992e-01     0.00000000e+00    
           4.80922014e-01     5.00564992e-01     0.00000000e+00    
           5.25367022e-01     4.88312006e-01     0.00000000e+00    
           5.09521008e-01     4.88312006e-01     0.00000000e+00    
           4.65243995e-01     5.34618974e-01     0.00000000e+00    
           4.65243995e-01     4.66010004e-01     0.00000000e+00    
           5.33852994e-01     4.66010004e-01     0.00000000e+00    
           5.33852994e-01     5.34618974e-01     0.00000000e+00    
           5.21338999e-01     5.13502657e-01     0.00000000e+00    
           5.20626605e-01     5.15222490e-01     0.00000000e+00    
           5.19493401e-01     5.16699374e-01     0.00000000e+00    
           5.18016517e-01     5.17832637e-01     0.00000000e+00    
           5.16296625e-01     5.18545032e-01     0.00000000e+00    
           5.14451027e-01     5.18787980e-01     0.00000000e+00    
           5.12605369e-01     5.18545032e-01     0.00000000e+00    
           5.10885477e-01     5.17832637e-01     0.00000000e+00    
           5.09408593e-01     5.16699374e-01     0.00000000e+00    
           5.08275390e-01     5.15222490e-01     0.00000000e+00    
           5.07562995e-01     5.13502657e-01     0.00000000e+00    
           5.07562995e-01     5.09811342e-01     0.00000000e+00    
           5.08275390e-01     5.08091509e-01     0.00000000e+00    
           5.09408593e-01     5.06614625e-01     0.00000000e+00    
           5.10885477e-01     5.05481362e-01     0.00000000e+00    
           5.12605369e-01     5.04768968e-01     0.00000000e+00    
           5.14451027e-01     5.04526019e-01     0.00000000e+00    
           5.16296625e-01     5.04768968e-01     0.00000000e+00    
           5.18016517e-01     5.05481362e-01     0.00000000e+00    
           5.19493401e-01     5.06614625e-01     0.00000000e+00    
           5.20626605e-01     5.08091509e-01     0.00000000e+00    
           5.21338999e-01     5.09811342e-01     0.00000000e+00    
           4.66931671e-01     5.04409373e-01     0.00000000e+00    
           4.68693614e-01     5.04328012e-01     0.00000000e+00    
           4.70421344e-01     5.04682958e-01     0.00000000e+00    
           4.72008497e-01     5.05452335e-01     0.00000000e+00    
           4.73357379e-01     5.06588817e-01     0.00000000e+00    
           4.74384934e-01     5.08022368e-01     0.00000000e+00    
           4.75027919e-01     5.09664834e-01     0.00000000e+00    
           4.75028187e-01     5.13165236e-01     0.00000000e+00    
           4.74385172e-01     5.14807761e-01     0.00000000e+00    
           4.73357558e-01     5.16241372e-01     0.00000000e+00    
           4.72008646e-01     5.17377913e-01     0.00000000e+00    
           4.70421433e-01     5.18147290e-01     0.00000000e+00    
           4.68693614e-01     5.18502235e-01     0.00000000e+00    
           4.66931641e-01     5.18420875e-01     0.00000000e+00    
           5.32303810e-01     5.16964078e-01     0.00000000e+00    
           5.31043947e-01     5.15658796e-01     0.00000000e+00    
           5.30155540e-01     5.14077127e-01     0.00000000e+00    
           5.29696345e-01     5.12322068e-01     0.00000000e+00    
           5.29696345e-01     5.10507941e-01     0.00000000e+00    
           5.30155540e-01     5.08752882e-01     0.00000000e+00    
           5.31043947e-01     5.07171214e-01     0.00000000e+00    
           5.32303810e-01     5.05865932e-01     0.00000000e+00    
           4.68517244e-01     5.32760799e-01     0.00000000e+00    
           4.68509018e-01     5.30844629e-01     0.00000000e+00    
           4.68960851e-01     5.28982460e-01     0.00000000e+00    
           4.69846308e-01     5.27283132e-01     0.00000000e+00    
           4.71113682e-01     5.25845945e-01     0.00000000e+00    
           4.72688884e-01     5.24754822e-01     0.00000000e+00    
           4.74479854e-01     5.24073541e-01     0.00000000e+00    
           4.78284091e-01     5.24073601e-01     0.00000000e+00    
           4.80075032e-01     5.24754822e-01     0.00000000e+00    
           4.81650203e-01     5.25845885e-01     0.00000000e+00    
           4.82917547e-01     5.27283013e-01     0.00000000e+00    
           4.83803004e-01     5.28982282e-01     0.00000000e+00    
           4.84254897e-01     5.30844331e-01     0.00000000e+00    
           4.84246761e-01     5.32760441e-01     0.00000000e+00    
           4.82887864e-01     4.67691004e-01     0.00000000e+00    
           4.81620818e-01     4.69110936e-01     0.00000000e+00    
           4.80051905e-01     4.70188022e-01     0.00000000e+00    
           4.78271484e-01     4.70860153e-01     0.00000000e+00    
           4.76382166e-01     4.71088618e-01     0.00000000e+00    
           4.74492878e-01     4.70860243e-01     0.00000000e+00    
           4.72712427e-01     4.70188200e-01     0.00000000e+00    
           4.71143454e-01     4.69111174e-01     0.00000000e+00    
           4.69876349e-01     4.67691302e-01     0.00000000e+00    
           4.88103986e-01     5.33086061e-01     0.00000000e+00    
           4.87431526e-01     5.31323195e-01     0.00000000e+00    
           4.87231195e-01     5.29447019e-01     0.00000000e+00    
           4.87516224e-01     5.27581930e-01     0.00000000e+00    
           4.88267750e-01     5.25851250e-01     0.00000000e+00    
           4.89436030e-01     5.24369657e-01     0.00000000e+00    
           4.90943670e-01     5.23235261e-01     0.00000000e+00    
           4.92690891e-01     5.22523046e-01     0.00000000e+00    
           4.96432930e-01     5.22523701e-01     0.00000000e+00    
           4.98180002e-01     5.23235798e-01     0.00000000e+00    
           4.99687493e-01     5.24370134e-01     0.00000000e+00    
           5.00855684e-01     5.25851607e-01     0.00000000e+00    
           5.01607120e-01     5.27582109e-01     0.00000000e+00    
           5.01892149e-01     5.29447079e-01     0.00000000e+00    
           5.01691818e-01     5.31323016e-01     0.00000000e+00    
           5.01019418e-01     5.33085763e-01     0.00000000e+00    
           4.98371124e-01     4.67269689e-01     0.00000000e+00    
           4.96539861e-01     4.68064904e-01     0.00000000e+00    
           4.94562000e-01     4.68336672e-01     0.00000000e+00    
           4.92584139e-01     4.68064904e-01     0.00000000e+00    
           4.90752876e-01     4.67269689e-01     0.00000000e+00    
           5.32269001e-01     4.75995690e-01     0.00000000e+00    
           5.31541944e-01     4.77750987e-01     0.00000000e+00    
           5.30385315e-01     4.79258329e-01     0.00000000e+00    
           5.28877974e-01     4.80414927e-01     0.00000000e+00    
[...]
      <PointData>
        <DataArray type="Float32" Name="Displacement" NumberOfComponents="3">
           4.69819613e-04     3.99787270e-04     0.00000000e+00    
           4.55801928e-04     3.96079966e-04     0.00000000e+00    
          -1.63157529e-05     4.18708834e-04     0.00000000e+00    
          -1.49175175e-05     4.01316822e-04     0.00000000e+00    
          -3.19009450e-06     4.13855450e-04     0.00000000e+00    
           5.85082511e-04     4.01316822e-04     0.00000000e+00    
           5.83684247e-04     4.18708834e-04     0.00000000e+00    
           9.62512786e-05     5.85791015e-04     0.00000000e+00    
           8.10990459e-05     5.96932892e-04     0.00000000e+00    
           8.11820355e-05     5.78738458e-04     0.00000000e+00    
           8.10990459e-05    -3.06712150e-06     0.00000000e+00    
           9.62512786e-05    -1.42089812e-05     0.00000000e+00    
           2.24490330e-04     5.47718082e-04     0.00000000e+00    
           2.11707506e-04     5.58485568e-04     0.00000000e+00    
           2.04821103e-04     5.41211048e-04     0.00000000e+00    
           2.11707506e-04    -4.15144204e-05     0.00000000e+00    
           2.24490330e-04    -5.22819319e-05     0.00000000e+00    
           5.61928959e-04     9.85359002e-05     0.00000000e+00    
           5.45290299e-04     1.04945626e-04     0.00000000e+00    
           5.50236960e-04     5.12329687e-04     0.00000000e+00    
           5.53410500e-04     5.25362848e-04     0.00000000e+00    
           5.34447725e-04     5.22242277e-04     0.00000000e+00    
          -4.65894773e-05     5.25362848e-04     0.00000000e+00    
          -4.97630463e-05     5.12329687e-04     0.00000000e+00    
           1.31075794e-04     4.77646536e-04     0.00000000e+00    
           1.15209536e-04     4.85861412e-04     0.00000000e+00    
           4.33638226e-04     5.20095753e-04     0.00000000e+00    
           4.15145070e-04     5.08094672e-04     0.00000000e+00    
           3.00970976e-04     2.06479075e-04     0.00000000e+00    
           2.82229332e-04     1.94058375e-04     0.00000000e+00    
           5.82221073e-05     1.17671494e-04     0.00000000e+00    
           5.41455483e-05     1.08897424e-04     0.00000000e+00    
           7.31866603e-05     1.09802109e-04     0.00000000e+00    
           6.54145551e-04     1.08897424e-04     0.00000000e+00    
           6.58222125e-04     1.17671494e-04     0.00000000e+00    
           6.51982191e-05     3.04468034e-04     0.00000000e+00    
           4.80105555e-05     2.93196033e-04     0.00000000e+00    
           1.65000209e-04     1.35671187e-04     0.00000000e+00    
           1.44626887e-04     1.18646654e-04     0.00000000e+00    
           3.04232351e-04     2.59833207e-04     0.00000000e+00    
           2.86246825e-04     2.75286584e-04     0.00000000e+00    
           5.29143028e-04     3.43439227e-04     0.00000000e+00    
           5.10886719e-04     3.41137376e-04     0.00000000e+00    
           1.72378859e-04     3.22163338e-04     0.00000000e+00    
           1.53059111e-04     3.33626464e-04     0.00000000e+00    
           4.56134585e-04     2.35470550e-04     0.00000000e+00    
           4.36696107e-04     2.23501222e-04     0.00000000e+00    
           0.00000000e+00     6.00000028e-04     0.00000000e+00    
           0.00000000e+00     0.00000000e+00     0.00000000e+00    
           6.00000028e-04     0.00000000e+00     0.00000000e+00    
           6.00000028e-04     6.00000028e-04     0.00000000e+00    
           4.68691986e-04     4.02892998e-04     0.00000000e+00    
           4.67683043e-04     4.05022787e-04     0.00000000e+00    
           4.66313242e-04     4.06622305e-04     0.00000000e+00    
           4.64527111e-04     4.07454558e-04     0.00000000e+00    
           4.62388591e-04     4.08001390e-04     0.00000000e+00    
           4.60205280e-04     4.07945103e-04     0.00000000e+00    
           4.58933471e-04     4.07081738e-04     0.00000000e+00    
           4.57949442e-04     4.05449769e-04     0.00000000e+00    
           4.56870795e-04     4.03157261e-04     0.00000000e+00    
           4.56039998e-04     4.00648685e-04     0.00000000e+00    
           4.55738482e-04     3.98323697e-04     0.00000000e+00    
           4.56200418e-04     3.93805065e-04     0.00000000e+00    
           4.57009854e-04     3.92029848e-04     0.00000000e+00    
           4.58147551e-04     3.90810397e-04     0.00000000e+00    
           4.59575240e-04     3.90238740e-04     0.00000000e+00    
           4.61666583e-04     3.90040281e-04     0.00000000e+00    
           4.64454875e-04     3.90253612e-04     0.00000000e+00    
           4.67420468e-04     3.90796922e-04     0.00000000e+00    
           4.69930063e-04     3.91480164e-04     0.00000000e+00    
           4.71035717e-04     3.92749149e-04     0.00000000e+00    
           4.71348205e-04     3.94516683e-04     0.00000000e+00    
           4.70609462e-04     3.96785705e-04     0.00000000e+00    
          -1.15574858e-05     4.00674733e-04     0.00000000e+00    
          -8.65687343e-06     4.01202065e-04     0.00000000e+00    
          -7.03029355e-06     4.02137841e-04     0.00000000e+00    
          -5.68620908e-06     4.03732411e-04     0.00000000e+00    
          -4.63043716e-06     4.06226609e-04     0.00000000e+00    
          -3.77196579e-06     4.08811262e-04     0.00000000e+00    
          -3.33717139e-06     4.11555055e-04     0.00000000e+00    
          -3.59638739e-06     4.15489631e-04     0.00000000e+00    
          -4.46297463e-06     4.16538242e-04     0.00000000e+00    
          -5.99963187e-06     4.17534611e-04     0.00000000e+00    
          -7.98686688e-06     4.18269425e-04     0.00000000e+00    
          -1.00580110e-05     4.18804178e-04     0.00000000e+00    
          -1.24643202e-05     4.19113465e-04     0.00000000e+00    
          -1.47896544e-05     4.18972515e-04     0.00000000e+00    
           5.82828710e-04     4.17651259e-04     0.00000000e+00    
           5.82514156e-04     4.16122639e-04     0.00000000e+00    
           5.82127890e-04     4.13076370e-04     0.00000000e+00    
           5.81831497e-04     4.10034729e-04     0.00000000e+00    
           5.81772416e-04     4.06827166e-04     0.00000000e+00    
           5.81805652e-04     4.04421415e-04     0.00000000e+00    
           5.82225446e-04     4.03065642e-04     0.00000000e+00    
           5.83381741e-04     4.01991827e-04     0.00000000e+00    
           7.87337922e-05     5.94498473e-04     0.00000000e+00    
           7.69415346e-05     5.92039025e-04     0.00000000e+00    
           7.57459347e-05     5.89978124e-04     0.00000000e+00    
           7.53396234e-05     5.87843009e-04     0.00000000e+00    
           7.58419919e-05     5.85498288e-04     0.00000000e+00    
           7.71088235e-05     5.83098561e-04     0.00000000e+00    
           7.89790211e-05     5.80806576e-04     0.00000000e+00    
           8.39244603e-05     5.76771621e-04     0.00000000e+00    
           8.60045548e-05     5.75705315e-04     0.00000000e+00    
           8.80786174e-05     5.75545593e-04     0.00000000e+00    
           9.03363107e-05     5.76393504e-04     0.00000000e+00    
           9.28115551e-05     5.78375126e-04     0.00000000e+00    
           9.46588698e-05     5.80442662e-04     0.00000000e+00    
           9.58330056e-05     5.82702167e-04     0.00000000e+00    
           9.63053317e-05    -1.10747087e-05     0.00000000e+00    
           9.60271645e-05    -7.99185091e-06     0.00000000e+00    
           9.52463743e-05    -5.38878749e-06     0.00000000e+00    
           9.36007709e-05    -3.05016624e-06     0.00000000e+00    
           9.15967175e-05    -1.06688890e-06     0.00000000e+00    
           8.97638602e-05     3.43982379e-07     0.00000000e+00    
           8.79903891e-05     9.31696491e-07     0.00000000e+00    
           8.59460997e-05     4.09336650e-07     0.00000000e+00    
           8.34103339e-05    -1.14532963e-06     0.00000000e+00    
           2.08589991e-04     5.57635678e-04     0.00000000e+00    
           2.05764736e-04     5.56273386e-04     0.00000000e+00    
           2.03545860e-04     5.54440659e-04     0.00000000e+00    
           2.01916875e-04     5.51670673e-04     0.00000000e+00    
           2.00835013e-04     5.48328389e-04     0.00000000e+00    
           2.00391936e-04     5.45939431e-04     0.00000000e+00    
           2.00774608e-04     5.43878705e-04     0.00000000e+00    
           2.01947012e-04     5.42308495e-04     0.00000000e+00    
           2.08154714e-04     5.40136069e-04     0.00000000e+00    
           2.11665581e-04     5.39484608e-04     0.00000000e+00    
           2.15199703e-04     5.39377972e-04     0.00000000e+00    
           2.18352594e-04     5.39553817e-04     0.00000000e+00    
           2.20781731e-04     5.39699453e-04     0.00000000e+00    
           2.22897914e-04     5.40406036e-04     0.00000000e+00    
           2.24281437e-04     5.41898073e-04     0.00000000e+00    
           2.24756892e-04     5.44553914e-04     0.00000000e+00    
           2.23502109e-04    -4.91920182e-05     0.00000000e+00    
           2.21935305e-04    -4.64155419e-05     0.00000000e+00    
           2.19907059e-04    -4.41102129e-05     0.00000000e+00    
           2.17417037e-04    -4.24284772e-05     0.00000000e+00    
           2.14782776e-04    -4.15081195e-05     0.00000000e+00    
           5.62711561e-04     1.00387129e-04     0.00000000e+00    
           5.62676054e-04     1.02019309e-04     0.00000000e+00    
           5.61772438e-04     1.03709201e-04     0.00000000e+00    
           5.59054024e-04     1.06117637e-04     0.00000000e+00    
           5.56018844e-04     1.08296503e-04     0.00000000e+00    
           5.53335180e-04     1.09722896e-04     0.00000000e+00    
           5.51539881e-04     1.11070112e-04     0.00000000e+00    
           5.49943652e-04     1.11534857e-04     0.00000000e+00    
           5.48697659e-04     1.11374597e-04     0.00000000e+00    
           5.47228090e-04     1.10118257e-04     0.00000000e+00    
           5.46029187e-04     1.07836277e-04     0.00000000e+00    
           5.44854091e-04     1.02276172e-04     0.00000000e+00    
           5.45007584e-04     9.94043658e-05     0.00000000e+00    
           5.45588671e-04     9.68874519e-05     0.00000000e+00    
           5.46596653e-04     9.46224900e-05     0.00000000e+00    
           5.47988631e-04     9.27734436e-05     0.00000000e+00    
           5.49372518e-04     9.14306947e-05     0.00000000e+00    
           5.50893019e-04     9.07574940e-05     0.00000000e+00    
           5.52780810e-04     9.09372102e-05     0.00000000e+00    
           5.55198756e-04     9.21284081e-05     0.00000000e+00    
           5.57606865e-04     9.39711827e-05     0.00000000e+00    
           5.59966662e-04     9.61754777e-05     0.00000000e+00    
           5.51822945e-04     5.27279626e-04     0.00000000e+00    
           5.49781020e-04     5.29123005e-04     0.00000000e+00    
           5.47589967e-04     5.30778663e-04     0.00000000e+00    
           5.45737683e-04     5.31427504e-04     0.00000000e+00    
           5.44002920e-04     5.31342637e-04     0.00000000e+00    
           5.41593588e-04     5.30323421e-04     0.00000000e+00    
           5.38930704e-04     5.28086035e-04     0.00000000e+00    
           5.36593259e-04     5.25914424e-04     0.00000000e+00    
           5.35006693e-04     5.24026633e-04     0.00000000e+00    
           5.34826657e-04     5.19979279e-04     0.00000000e+00    
           5.35667001e-04     5.17575478e-04     0.00000000e+00    
           5.36853797e-04     5.15593623e-04     0.00000000e+00    
           5.38475870e-04     5.14317537e-04     0.00000000e+00    
           5.40373381e-04     5.13342151e-04     0.00000000e+00    
           5.42938709e-04     5.12362749e-04     0.00000000e+00    
           5.45517018e-04     5.11547725e-04     0.00000000e+00    
           5.47485077e-04     5.10683050e-04     0.00000000e+00    
           5.49065589e-04     5.11082006e-04     0.00000000e+00    
          -4.84920347e-05     5.14567131e-04     0.00000000e+00    
          -4.73731525e-05     5.17188688e-04     0.00000000e+00    
          -4.63907527e-05     5.19720721e-04     0.00000000e+00    
          -4.59366747e-05     5.22058166e-04     0.00000000e+00    
          -4.59374714e-05     5.23725932e-04     0.00000000e+00    
           1.32377099e-04     4.80415998e-04     0.00000000e+00    
           1.33451540e-04     4.83801152e-04     0.00000000e+00    
           1.34180693e-04     4.86238219e-04     0.00000000e+00    
           1.34169706e-04     4.88429505e-04     0.00000000e+00    
           1.33169829e-04     4.90387611e-04     0.00000000e+00    
           1.30509783e-04     4.92004794e-04     0.00000000e+00    
           1.27489417e-04     4.93361556e-04     0.00000000e+00    
           1.24945887e-04     4.94225882e-04     0.00000000e+00    
           1.22810772e-04     4.94240958e-04     0.00000000e+00    
           1.21082776e-04     4.93509229e-04     0.00000000e+00    
           1.18863034e-04     4.91354789e-04     0.00000000e+00    
           1.16922776e-04     4.88370308e-04     0.00000000e+00    
           1.14046692e-04     4.83429816e-04     0.00000000e+00    
           1.13706796e-04     4.81466297e-04     0.00000000e+00    
           1.14260896e-04     4.79449751e-04     0.00000000e+00    
           1.15714451e-04     4.77094087e-04     0.00000000e+00    
           1.17555872e-04     4.74835833e-04     0.00000000e+00    
           1.19628574e-04     4.72845393e-04     0.00000000e+00    
           1.20944460e-04     4.71555017e-04     0.00000000e+00    
           1.22107303e-04     4.70821222e-04     0.00000000e+00    
           1.23779872e-04     4.70944768e-04     0.00000000e+00    
           1.25708815e-04     4.72036831e-04     0.00000000e+00    
           1.27689927e-04     4.73583350e-04     0.00000000e+00    
           1.29530366e-04     4.75424749e-04     0.00000000e+00    
           4.30990010e-04     5.21621958e-04     0.00000000e+00    
           4.27751307e-04     5.22932562e-04     0.00000000e+00    
           4.24466532e-04     5.23269991e-04     0.00000000e+00    
           4.21338220e-04     5.22588845e-04     0.00000000e+00    
           4.18339652e-04     5.21143491e-04     0.00000000e+00    
           4.15804650e-04     5.19118563e-04     0.00000000e+00    
           4.13810572e-04     5.16643748e-04     0.00000000e+00    
           4.12608613e-04     5.13877487e-04     0.00000000e+00    
           4.12235822e-04     5.11296734e-04     0.00000000e+00    
           4.13214235e-04     5.09380247e-04     0.00000000e+00    
           4.17700561e-04     5.07292454e-04     0.00000000e+00    
           4.20810567e-04     5.06147277e-04     0.00000000e+00    
           4.24375641e-04     5.05383534e-04     0.00000000e+00    
           4.28074040e-04     5.04887954e-04     0.00000000e+00    
           4.31140681e-04     5.05252276e-04     0.00000000e+00    
           4.33037436e-04     5.06444077e-04     0.00000000e+00    
           4.34238900e-04     5.08559053e-04     0.00000000e+00    
           4.35438793e-04     5.11793944e-04     0.00000000e+00    
           4.35823138e-04     5.15439198e-04     0.00000000e+00    
           4.35381429e-04     5.18222048e-04     0.00000000e+00    
           3.00008338e-04     2.07920297e-04     0.00000000e+00    
           2.98316590e-04     2.08756159e-04     0.00000000e+00    
           2.95885315e-04     2.09685997e-04     0.00000000e+00    
           2.92448764e-04     2.10490587e-04     0.00000000e+00    
           2.89853488e-04     2.10760496e-04     0.00000000e+00    
           2.87942472e-04     2.09813123e-04     0.00000000e+00    
           2.86174502e-04     2.07786754e-04     0.00000000e+00    
           2.84383452e-04     2.04776064e-04     0.00000000e+00    
           2.82820489e-04     2.01747724e-04     0.00000000e+00    
           2.82031688e-04     1.98587019e-04     0.00000000e+00    
           2.81723420e-04     1.95855158e-04     0.00000000e+00    
           2.83156987e-04     1.93190484e-04     0.00000000e+00    
           2.84674228e-04     1.92588122e-04     0.00000000e+00    
           2.86794238e-04     1.92250664e-04     0.00000000e+00    
           2.89555523e-04     1.92247913e-04     0.00000000e+00    
           2.92333803e-04     1.92664374e-04     0.00000000e+00    
           2.94828496e-04     1.93685919e-04     0.00000000e+00    
           2.96972285e-04     1.95305169e-04     0.00000000e+00    
           2.98684521e-04     1.97321497e-04     0.00000000e+00    
           3.00047657e-04     1.99767514e-04     0.00000000e+00    
           3.00848711e-04     2.02249270e-04     0.00000000e+00    
           3.01154942e-04     2.04710188e-04     0.00000000e+00    
           5.58934917e-05     1.07338121e-04     0.00000000e+00    
           5.82042303e-05     1.05337291e-04     0.00000000e+00    
           6.06104659e-05     1.03588303e-04     0.00000000e+00    
           6.26992041e-05     1.02247264e-04     0.00000000e+00    
           6.45428008e-05     1.01650781e-04     0.00000000e+00    
           6.62536331e-05     1.01854239e-04     0.00000000e+00    
           6.84543265e-05     1.03395236e-04     0.00000000e+00    
           7.06329956e-05     1.06090905e-04     0.00000000e+00    
           7.23667326e-05     1.08126893e-04     0.00000000e+00    
           7.31981127e-05     1.11658243e-04     0.00000000e+00    
           7.19337550e-05     1.13886934e-04     0.00000000e+00    
           7.01072058e-05     1.16454597e-04     0.00000000e+00    
           6.82331665e-05     1.18691249e-04     0.00000000e+00    
           6.68962821e-05     1.20020486e-04     0.00000000e+00    
           6.57711862e-05     1.20726152e-04     0.00000000e+00    
           6.42925588e-05     1.20790071e-04     0.00000000e+00    
           6.24261884e-05     1.20219571e-04     0.00000000e+00    
           6.03067892e-05     1.19140816e-04     0.00000000e+00    
           6.56367745e-04     1.15732968e-04     0.00000000e+00    
           6.54524600e-04     1.13367765e-04     0.00000000e+00    
           6.53675583e-04     1.11722475e-04     0.00000000e+00    
           6.53573836e-04     1.10277215e-04     0.00000000e+00    
           6.39312057e-05     3.05823021e-04     0.00000000e+00    
           6.18521299e-05     3.06548289e-04     0.00000000e+00    
           5.89778065e-05     3.07077891e-04     0.00000000e+00    
           5.54578255e-05     3.07365262e-04     0.00000000e+00    
           5.20212816e-05     3.07297363e-04     0.00000000e+00    
           4.91840401e-05     3.06680449e-04     0.00000000e+00    
           4.73897890e-05     3.05490743e-04     0.00000000e+00    
           4.62231073e-05     3.03663779e-04     0.00000000e+00    
           4.53370631e-05     3.00872896e-04     0.00000000e+00    
           4.52138629e-05     2.98042403e-04     0.00000000e+00    
           4.61981836e-05     2.95552745e-04     0.00000000e+00    
           5.04689124e-05     2.90964410e-04     0.00000000e+00    
           5.31729420e-05     2.88875046e-04     0.00000000e+00    
           5.60725020e-05     2.87349976e-04     0.00000000e+00    
           5.85875714e-05     2.86759489e-04     0.00000000e+00    
           6.05064524e-05     2.87082599e-04     0.00000000e+00    
           6.19333732e-05     2.88169336e-04     0.00000000e+00    
           6.30783397e-05     2.89982068e-04     0.00000000e+00    
           6.42885279e-05     2.92487093e-04     0.00000000e+00    
           6.51018563e-05     2.95371574e-04     0.00000000e+00    