<?xml version="1.0"?>
<VTKFile type="UnstructuredGrid" version="0.1">
  <UnstructuredGrid>
    <Piece NumberOfPoints="1034" NumberOfCells="1614">
      <Points>
        <DataArray type="Float32" NumberOfComponents="3">
           5.21582007e-01     5.11657000e-01     0.00000000e+00    
           5.07319987e-01     5.11657000e-01     0.00000000e+00    
           4.65243995e-01     5.17907977e-01     0.00000000e+00    
           4.65243995e-01     5.04921973e-01     0.00000000e+00    
           4.75246996e-01     5.11415005e-01     0.00000000e+00    
           5.33852994e-01     5.04921973e-01     0.00000000e+00    
           5.33852994e-01     5.17907977e-01     0.00000000e+00    
           4.83779997e-01     5.34618974e-01     0.00000000e+00    
           4.68984991e-01     5.34618974e-01     0.00000000e+00    
           4.76381987e-01     5.23841977e-01     0.00000000e+00    
           4.68984991e-01     4.66010004e-01     0.00000000e+00    
           4.83779997e-01     4.66010004e-01     0.00000000e+00    
           4.99920011e-01     5.34618974e-01     0.00000000e+00    
           4.89203990e-01     5.34618974e-01     0.00000000e+00    
           4.94562000e-01     5.22280991e-01     0.00000000e+00    
           4.89203990e-01     4.66010004e-01     0.00000000e+00    
           4.99920011e-01     4.66010004e-01     0.00000000e+00    
           5.32517016e-01     4.74112004e-01     0.00000000e+00    
           5.17961025e-01     4.74112004e-01     0.00000000e+00    
           5.33852994e-01     5.19801974e-01     0.00000000e+00    
           5.33852994e-01     5.29603004e-01     0.00000000e+00    
           5.19536972e-01     5.24702013e-01     0.00000000e+00    
           4.65243995e-01     5.29603004e-01     0.00000000e+00    
           4.65243995e-01     5.19801974e-01     0.00000000e+00    
           4.92487997e-01     5.17117977e-01     0.00000000e+00    
           4.76904988e-01     5.17117977e-01     0.00000000e+00    
           5.17996013e-01     5.27033985e-01     0.00000000e+00    
           5.04473984e-01     5.27033985e-01     0.00000000e+00    
           5.08446991e-01     4.83435005e-01     0.00000000e+00    
           4.94414002e-01     4.83435005e-01     0.00000000e+00    
           4.65243995e-01     4.83101994e-01     0.00000000e+00    
           4.65243995e-01     4.74415004e-01     0.00000000e+00    
           4.78336990e-01     4.78758007e-01     0.00000000e+00    
           5.33852994e-01     4.74415004e-01     0.00000000e+00    
           5.33852994e-01     4.83101994e-01     0.00000000e+00    
           4.80668008e-01     4.95810986e-01     0.00000000e+00    
           4.66084987e-01     4.95810986e-01     0.00000000e+00    
           4.93930012e-01     4.79214013e-01     0.00000000e+00    
           4.78967011e-01     4.79214013e-01     0.00000000e+00    
           5.09284973e-01     4.97658014e-01     0.00000000e+00    
           4.95503992e-01     4.97658014e-01     0.00000000e+00    
           5.33011973e-01     5.01751006e-01     0.00000000e+00    
           5.17829001e-01     5.01751006e-01     0.00000000e+00    
           4.95451003e-01     5.00564992e-01     0.00000000e+00    
           4.80922014e-01     5.00564992e-01     0.00000000e+00    
           5.25367022e-01     4.88312006e-01     0.00000000e+00    
           5.09521008e-01     4.88312006e-01     0.00000000e+00    
           4.65243995e-01     5.34618974e-01     0.00000000e+00    
           4.65243995e-01     4.66010004e-01     0.00000000e+00    
           5.33852994e-01     4.66010004e-01     0.00000000e+00    
           5.33852994e-01     5.34618974e-01     0.00000000e+00    
           5.21338999e-01     5.13502657e-01     0.00000000e+00    
           5.20626605e-01     5.15222490e-01     0.00000000e+00    
           5.19493401e-01     5.16699374e-01     0.00000000e+00    
           5.18016517e-01     5.17832637e-01     0.00000000e+00    
           5.16296625e-01     5.18545032e-01     0.00000000e+00    
           5.14451027e-01     5.18787980e-01     0.00000000e+00    
           5.12605369e-01     5.18545032e-01     0.00000000e+00    
           5.10885477e-01     5.17832637e-01     0.00000000e+00    
           5.09408593e-01     5.16699374e-01     0.00000000e+00    
           5.08275390e-01     5.15222490e-01     0.00000000e+00    
           5.07562995e-01     5.13502657e-01     0.00000000e+00    
           5.07562995e-01     5.09811342e-01     0.00000000e+00    
           5.08275390e-01     5.08091509e-01     0.00000000e+00    
           5.09408593e-01     5.06614625e-01     0.00000000e+00    
           5.10885477e-01     5.05481362e-01     0.00000000e+00    
           5.12605369e-01     5.04768968e-01     0.00000000e+00    
           5.14451027e-01     5.04526019e-01     0.00000000e+00    
           5.16296625e-01     5.04768968e-01     0.00000000e+00    
           5.18016517e-01     5.05481362e-01     0.00000000e+00    
           5.19493401e-01     5.06614625e-01     0.00000000e+00    
           5.20626605e-01     5.08091509e-01     0.00000000e+00    
           5.21338999e-01     5.09811342e-01     0.00000000e+00    
           4.66931671e-01     5.04409373e-01     0.00000000e+00    
           4.68693614e-01     5.04328012e-01     0.00000000e+00    
           4.70421344e-01     5.04682958e-01     0.00000000e+00    
           4.72008497e-01     5.05452335e-01     0.00000000e+00    
           4.73357379e-01     5.06588817e-01     0.00000000e+00    
           4.74384934e-01     5.08022368e-01     0.00000000e+00    
           4.75027919e-01     5.09664834e-01     0.00000000e+00    
           4.75028187e-01     5.13165236e-01     0.00000000e+00    
           4.74385172e-01     5.14807761e-01     0.00000000e+00    
           4.73357558e-01     5.16241372e-01     0.00000000e+00    
           4.72008646e-01     5.17377913e-01     0.00000000e+00    
           4.70421433e-01     5.18147290e-01     0.00000000e+00    
           4.68693614e-01     5.18502235e-01     0.00000000e+00    
           4.66931641e-01     5.18420875e-01     0.00000000e+00    
           5.32303810e-01     5.16964078e-01     0.00000000e+00    
           5.31043947e-01     5.15658796e-01     0.00000000e+00    
           5.30155540e-01     5.14077127e-01     0.00000000e+00    
           5.29696345e-01     5.12322068e-01     0.00000000e+00    
           5.29696345e-01     5.10507941e-01     0.00000000e+00    
           5.30155540e-01     5.08752882e-01     0.00000000e+00    
           5.31043947e-01     5.07171214e-01     0.00000000e+00    
           5.32303810e-01     5.05865932e-01     0.00000000e+00    
           4.68517244e-01     5.32760799e-01     0.00000000e+00    
           4.68509018e-01     5.30844629e-01     0.00000000e+00    
           4.68960851e-01     5.28982460e-01     0.00000000e+00    
           4.69846308e-01     5.27283132e-01     0.00000000e+00    
           4.71113682e-01     5.25845945e-01     0.00000000e+00    
           4.72688884e-01     5.24754822e-01     0.00000000e+00    
           4.74479854e-01     5.24073541e-01     0.00000000e+00    
           4.78284091e-01     5.24073601e-01     0.00000000e+00    
           4.80075032e-01     5.24754822e-01     0.00000000e+00    
           4.81650203e-01     5.25845885e-01     0.00000000e+00    
           4.82917547e-01     5.27283013e-01     0.00000000e+00    
           4.83803004e-01     5.28982282e-01     0.00000000e+00    
           4.84254897e-01     5.30844331e-01     0.00000000e+00    
           4.84246761e-01     5.32760441e-01     0.00000000e+00    
           4.82887864e-01     4.67691004e-01     0.00000000e+00    
           4.81620818e-01     4.69110936e-01     0.00000000e+00    
           4.80051905e-01     4.70188022e-01     0.00000000e+00    
           4.78271484e-01     4.70860153e-01     0.00000000e+00    
           4.76382166e-01     4.71088618e-01     0.00000000e+00    
           4.74492878e-01     4.70860243e-01     0.00000000e+00    
           4.72712427e-01     4.70188200e-01     0.00000000e+00    
           4.71143454e-01     4.69111174e-01     0.00000000e+00    
           4.69876349e-01     4.67691302e-01     0.00000000e+00    
           4.88103986e-01     5.33086061e-01     0.00000000e+00    
           4.87431526e-01     5.31323195e-01     0.00000000e+00    
           4.87231195e-01     5.29447019e-01     0.00000000e+00    
           4.87516224e-01     5.27581930e-01     0.00000000e+00    
           4.88267750e-01     5.25851250e-01     0.00000000e+00    
           4.89436030e-01     5.24369657e-01     0.00000000e+00    
           4.90943670e-01     5.23235261e-01     0.00000000e+00    
           4.92690891e-01     5.22523046e-01     0.00000000e+00    
           4.96432930e-01     5.22523701e-01     0.00000000e+00    
           4.98180002e-01     5.23235798e-01     0.00000000e+00    
           4.99687493e-01     5.24370134e-01     0.00000000e+00    
           5.00855684e-01     5.25851607e-01     0.00000000e+00    
           5.01607120e-01     5.27582109e-01     0.00000000e+00    
           5.01892149e-01     5.29447079e-01     0.00000000e+00    
           5.01691818e-01     5.31323016e-01     0.00000000e+00    
           5.01019418e-01     5.33085763e-01     0.00000000e+00    
           4.98371124e-01     4.67269689e-01     0.00000000e+00    
           4.96539861e-01     4.68064904e-01     0.00000000e+00    
           4.94562000e-01     4.68336672e-01     0.00000000e+00    
           4.92584139e-01     4.68064904e-01     0.00000000e+00    
           4.90752876e-01     4.67269689e-01     0.00000000e+00    
           5.32269001e-01     4.75995690e-01     0.00000000e+00    
           5.31541944e-01     4.77750987e-01     0.00000000e+00    
           5.30385315e-01     4.79258329e-01     0.00000000e+00    
           5.28877974e-01     4.80414927e-01     0.00000000e+00    
[...]
      <PointData>
        <DataArray type="Float32" Name="Displacement" NumberOfComponents="3">
           3.97169897e-05     3.13010169e-05     0.00000000e+00    
           3.81879327e-05     3.18642633e-05     0.00000000e+00    
          -2.96661210e-06     3.42138519e-05     0.00000000e+00    
          -3.13517558e-06     3.12841075e-05     0.00000000e+00    
          -1.42795784e-06     3.32320742e-05     0.00000000e+00    
           4.68648250e-05     3.12841075e-05     0.00000000e+00    
           4.70333871e-05     3.42138519e-05     0.00000000e+00    
           8.54635982e-06     4.80887793e-05     0.00000000e+00    
           6.74050307e-06     4.95280801e-05     0.00000000e+00    
           6.76282389e-06     4.71418134e-05     0.00000000e+00    
           6.74050307e-06    -4.71919179e-07     0.00000000e+00    
           8.54635982e-06    -1.91122149e-06     0.00000000e+00    
           1.98386897e-05     4.39770083e-05     0.00000000e+00    
           1.82994518e-05     4.53653738e-05     0.00000000e+00    
           1.71835018e-05     4.32532324e-05     0.00000000e+00    
           1.82994518e-05    -4.63462629e-06     0.00000000e+00    
           1.98386897e-05    -6.02299133e-06     0.00000000e+00    
           4.82720461e-05     9.50360300e-06     0.00000000e+00    
           4.59139810e-05     1.10602314e-05     0.00000000e+00    
           4.57824754e-05     4.12593436e-05     0.00000000e+00    
           4.65842495e-05     4.33428613e-05     0.00000000e+00    
           4.39816686e-05     4.34656249e-05     0.00000000e+00    
          -3.41574992e-06     4.33428613e-05     0.00000000e+00    
          -4.21752384e-06     4.12593436e-05     0.00000000e+00    
           1.11800455e-05     3.88836852e-05     0.00000000e+00    
           9.18857768e-06     3.94879353e-05     0.00000000e+00    
           3.65342239e-05     4.29608590e-05     0.00000000e+00    
           3.37284910e-05     4.13152193e-05     0.00000000e+00    
           2.60290453e-05     1.80981424e-05     0.00000000e+00    
           2.27012115e-05     1.49554862e-05     0.00000000e+00    
           5.98854149e-06     1.02194526e-05     0.00000000e+00    
           4.12757208e-06     9.19199283e-06     0.00000000e+00    
           7.98615474e-06     8.17157525e-06     0.00000000e+00    
           5.41275731e-05     9.19199283e-06     0.00000000e+00    
           5.59885411e-05     1.02194526e-05     0.00000000e+00    
           7.01099498e-06     2.52814389e-05     0.00000000e+00    
           4.55634881e-06     2.33252867e-05     0.00000000e+00    
           1.60632262e-05     1.11757145e-05     0.00000000e+00    
           1.22945867e-05     8.91906166e-06     0.00000000e+00    
           2.37903896e-05     2.16259432e-05     0.00000000e+00    
           2.05502911e-05     2.31362810e-05     0.00000000e+00    
           4.37380222e-05     2.77184681e-05     0.00000000e+00    
           4.14234164e-05     2.71809895e-05     0.00000000e+00    
           1.67757862e-05     2.55270061e-05     0.00000000e+00    
           1.31212028e-05     2.73410205e-05     0.00000000e+00    
           3.96684190e-05     2.09768477e-05     0.00000000e+00    
           3.69339068e-05     1.92228454e-05     0.00000000e+00    
           0.00000000e+00     4.99999987e-05     0.00000000e+00    
           0.00000000e+00     0.00000000e+00     0.00000000e+00    
           4.99999987e-05     0.00000000e+00     0.00000000e+00    
           4.99999987e-05     4.99999987e-05     0.00000000e+00    
           3.96323085e-05     3.17115264e-05     0.00000000e+00    
           3.96243595e-05     3.20503459e-05     0.00000000e+00    
           3.95735660e-05     3.23535278e-05     0.00000000e+00    
           3.94416675e-05     3.25584842e-05     0.00000000e+00    
           3.92449365e-05     3.27766102e-05     0.00000000e+00    
           3.89946254e-05     3.29855429e-05     0.00000000e+00    
           3.88374974e-05     3.30194853e-05     0.00000000e+00    
           3.87283872e-05     3.28170900e-05     0.00000000e+00    
           3.85884669e-05     3.25546280e-05     0.00000000e+00    
           3.84412051e-05     3.23109016e-05     0.00000000e+00    
           3.83147708e-05     3.20920408e-05     0.00000000e+00    
           3.80654383e-05     3.15965881e-05     0.00000000e+00    
           3.79706507e-05     3.13320743e-05     0.00000000e+00    
           3.79316589e-05     3.10881369e-05     0.00000000e+00    
           3.79833182e-05     3.09088027e-05     0.00000000e+00    
           3.81892678e-05     3.07505652e-05     0.00000000e+00    
           3.85245112e-05     3.06003712e-05     0.00000000e+00    
           3.89310007e-05     3.03913821e-05     0.00000000e+00    
           3.95049574e-05     3.00531192e-05     0.00000000e+00    
           4.02366677e-05     2.96763101e-05     0.00000000e+00    
           4.01725883e-05     3.02184508e-05     0.00000000e+00    
           3.98504089e-05     3.08303534e-05     0.00000000e+00    
          -2.55651435e-06     3.13799173e-05     0.00000000e+00    
          -2.13094017e-06     3.15250400e-05     0.00000000e+00    
          -1.90358173e-06     3.16872538e-05     0.00000000e+00    
          -1.76475817e-06     3.19803439e-05     0.00000000e+00    
          -1.69728014e-06     3.23502027e-05     0.00000000e+00    
          -1.60490583e-06     3.26645604e-05     0.00000000e+00    
          -1.53596102e-06     3.29692120e-05     0.00000000e+00    
          -1.36883943e-06     3.34270117e-05     0.00000000e+00    
          -1.46064690e-06     3.35143450e-05     0.00000000e+00    
          -1.67955375e-06     3.35834375e-05     0.00000000e+00    
          -1.92395100e-06     3.36392550e-05     0.00000000e+00    
          -2.14500415e-06     3.37182792e-05     0.00000000e+00    
          -2.39602036e-06     3.38192549e-05     0.00000000e+00    
          -2.67847258e-06     3.39649268e-05     0.00000000e+00    
           4.68276194e-05     3.42268140e-05     0.00000000e+00    
           4.67990576e-05     3.38564023e-05     0.00000000e+00    
           4.67784266e-05     3.33021344e-05     0.00000000e+00    
           4.66700476e-05     3.28340975e-05     0.00000000e+00    
           4.64717559e-05     3.23388813e-05     0.00000000e+00    
           4.61196578e-05     3.17565209e-05     0.00000000e+00    
           4.56548842e-05     3.10452997e-05     0.00000000e+00    
           4.61838608e-05     3.09920943e-05     0.00000000e+00    
           6.45206228e-06     4.92041800e-05     0.00000000e+00    
           6.20123456e-06     4.88671794e-05     0.00000000e+00    
           6.03465287e-06     4.85838245e-05     0.00000000e+00    
           6.01724241e-06     4.83273470e-05     0.00000000e+00    
           6.10938878e-06     4.80494782e-05     0.00000000e+00    
           6.26952078e-06     4.77592002e-05     0.00000000e+00    
           6.49208914e-06     4.74524168e-05     0.00000000e+00    
           7.17116154e-06     4.67560312e-05     0.00000000e+00    
           7.52179267e-06     4.65064259e-05     0.00000000e+00    
           7.73059219e-06     4.65929370e-05     0.00000000e+00    
           7.90685317e-06     4.68791841e-05     0.00000000e+00    
           8.16065858e-06     4.71680978e-05     0.00000000e+00    
           8.37204243e-06     4.74267945e-05     0.00000000e+00    
           8.49955995e-06     4.77028407e-05     0.00000000e+00    
           8.57504438e-06    -1.50884375e-06     0.00000000e+00    
           8.57443501e-06    -1.09187658e-06     0.00000000e+00    
           8.49151547e-06    -7.31622890e-07     0.00000000e+00    
           8.27951862e-06    -3.82701899e-07     0.00000000e+00    
           7.98047313e-06     1.64894800e-08     0.00000000e+00    
           7.65281493e-06     3.88220144e-07     0.00000000e+00    
           7.43195596e-06     4.07559384e-07     0.00000000e+00    
           7.23392441e-06     1.22485503e-07     0.00000000e+00    
           6.98649183e-06    -1.88299296e-07     0.00000000e+00    
           1.78755345e-05     4.52970562e-05     0.00000000e+00    
           1.74685811e-05     4.51648775e-05     0.00000000e+00    
           1.71291485e-05     4.49579384e-05     0.00000000e+00    
           1.68401421e-05     4.46157646e-05     0.00000000e+00    
           1.65097135e-05     4.40889089e-05     0.00000000e+00    
           1.62582382e-05     4.35523107e-05     0.00000000e+00    
           1.63453351e-05     4.32882334e-05     0.00000000e+00    
           1.67201342e-05     4.32749912e-05     0.00000000e+00    
           1.76378053e-05     4.31569133e-05     0.00000000e+00    
           1.81121050e-05     4.30564505e-05     0.00000000e+00    
           1.86484249e-05     4.29942993e-05     0.00000000e+00    
           1.92070038e-05     4.29746724e-05     0.00000000e+00    
           1.96791498e-05     4.29739521e-05     0.00000000e+00    
           1.99390797e-05     4.30689943e-05     0.00000000e+00    
           1.99781498e-05     4.32736451e-05     0.00000000e+00    
           1.99118895e-05     4.36090013e-05     0.00000000e+00    
           1.97118989e-05    -5.66297012e-06     0.00000000e+00    
           1.95375414e-05    -5.33187585e-06     0.00000000e+00    
           1.93075684e-05    -5.03974979e-06     0.00000000e+00    
           1.90146857e-05    -4.80364497e-06     0.00000000e+00    
           1.86936395e-05    -4.66245410e-06     0.00000000e+00    
           4.87829966e-05     9.84758026e-06     0.00000000e+00    
           4.86938006e-05     1.01246287e-05     0.00000000e+00    
           4.82752366e-05     1.03930906e-05     0.00000000e+00    
           4.78318616e-05     1.07815222e-05     0.00000000e+00    
           4.73777327e-05     1.12556772e-05     0.00000000e+00    
           4.68956350e-05     1.17790823e-05     0.00000000e+00    
           4.63679098e-05     1.23783584e-05     0.00000000e+00    
           4.60142255e-05     1.26328196e-05     0.00000000e+00    
           4.59815456e-05     1.23400323e-05     0.00000000e+00    
           4.60012416e-05     1.18418766e-05     0.00000000e+00    
           4.59617077e-05     1.14391141e-05     0.00000000e+00    
           4.58413633e-05     1.07094820e-05     0.00000000e+00    
           4.57970964e-05     1.03373786e-05     0.00000000e+00    
           4.57744209e-05     9.97446841e-06     0.00000000e+00    
           4.58061004e-05     9.59549561e-06     0.00000000e+00    
           4.59070689e-05     9.20318871e-06     0.00000000e+00    
           4.60431729e-05     8.83294706e-06     0.00000000e+00    
           4.62134885e-05     8.66671871e-06     0.00000000e+00    
           4.64333752e-05     8.69881023e-06     0.00000000e+00    
           4.67513746e-05     8.83849043e-06     0.00000000e+00    
           4.71262356e-05     8.99398492e-06     0.00000000e+00    
           4.76016357e-05     9.19647027e-06     0.00000000e+00    
           4.64231052e-05     4.36744522e-05     0.00000000e+00    
           4.62127355e-05     4.40557378e-05     0.00000000e+00    
           4.59699695e-05     4.44842735e-05     0.00000000e+00    
           4.57350106e-05     4.47713319e-05     0.00000000e+00    
           4.55138943e-05     4.48067804e-05     0.00000000e+00    
           4.51760388e-05     4.46248268e-05     0.00000000e+00    
           4.47885177e-05     4.42919809e-05     0.00000000e+00    
           4.43983918e-05     4.39946889e-05     0.00000000e+00    
           4.40633230e-05     4.37317285e-05     0.00000000e+00    
           4.40687800e-05     4.31503940e-05     0.00000000e+00    
           4.41327065e-05     4.28292369e-05     0.00000000e+00    
           4.42088312e-05     4.25487233e-05     0.00000000e+00    
           4.43336467e-05     4.23690144e-05     0.00000000e+00    
           4.44782490e-05     4.22004159e-05     0.00000000e+00    
           4.46957565e-05     4.19526768e-05     0.00000000e+00    
           4.49752479e-05     4.15914328e-05     0.00000000e+00    
           4.53186476e-05     4.10901011e-05     0.00000000e+00    
           4.56281268e-05     4.09481327e-05     0.00000000e+00    
          -4.04200819e-06     4.16962757e-05     0.00000000e+00    
          -3.84691521e-06     4.20793476e-05     0.00000000e+00    
          -3.63164304e-06     4.24450627e-05     0.00000000e+00    
          -3.45982403e-06     4.28056737e-05     0.00000000e+00    
          -3.37582310e-06     4.30796536e-05     0.00000000e+00    
           1.13636106e-05     3.92018701e-05     0.00000000e+00    
           1.16138463e-05     3.96314208e-05     0.00000000e+00    
           1.18991593e-05     4.01221041e-05     0.00000000e+00    
           1.19534325e-05     4.04982929e-05     0.00000000e+00    
           1.16583597e-05     4.05925311e-05     0.00000000e+00    
           1.11629888e-05     4.06598847e-05     0.00000000e+00    
           1.07199703e-05     4.08185551e-05     0.00000000e+00    
           1.02871545e-05     4.10317080e-05     0.00000000e+00    
           9.99179701e-06     4.10091234e-05     0.00000000e+00    
           9.84612325e-06     4.07140760e-05     0.00000000e+00    
           9.63606180e-06     4.02953701e-05     0.00000000e+00    
           9.41764210e-06     3.98533484e-05     0.00000000e+00    
           9.00317627e-06     3.91441135e-05     0.00000000e+00    
           9.04139597e-06     3.89231027e-05     0.00000000e+00    
           9.24708729e-06     3.87413966e-05     0.00000000e+00    
           9.52641312e-06     3.84925552e-05     0.00000000e+00    
           9.83600603e-06     3.82076869e-05     0.00000000e+00    
           1.01779005e-05     3.78644581e-05     0.00000000e+00    
           1.04178953e-05     3.76051576e-05     0.00000000e+00    
           1.05180980e-05     3.76339485e-05     0.00000000e+00    
           1.06148982e-05     3.78918376e-05     0.00000000e+00    
           1.07225997e-05     3.81834434e-05     0.00000000e+00    
           1.08575805e-05     3.84253690e-05     0.00000000e+00    
           1.10212168e-05     3.86411593e-05     0.00000000e+00    
           3.60944687e-05     4.31644148e-05     0.00000000e+00    
           3.56469172e-05     4.33083951e-05     0.00000000e+00    
           3.52208845e-05     4.33194255e-05     0.00000000e+00    
           3.48256108e-05     4.31862245e-05     0.00000000e+00    
           3.44512882e-05     4.29642059e-05     0.00000000e+00    
           3.41392915e-05     4.26870138e-05     0.00000000e+00    
           3.38782447e-05     4.23723541e-05     0.00000000e+00    
           3.36752964e-05     4.20335818e-05     0.00000000e+00    
           3.35113073e-05     4.17250776e-05     0.00000000e+00    
           3.34738324e-05     4.14816604e-05     0.00000000e+00    
           3.42315325e-05     4.11956025e-05     0.00000000e+00    
           3.47845998e-05     4.10720713e-05     0.00000000e+00    
           3.53103896e-05     4.09969325e-05     0.00000000e+00    
           3.57932440e-05     4.09356471e-05     0.00000000e+00    
           3.61938764e-05     4.09160348e-05     0.00000000e+00    
           3.64606967e-05     4.09611712e-05     0.00000000e+00    
           3.65932356e-05     4.12752343e-05     0.00000000e+00    
           3.66993045e-05     4.17899646e-05     0.00000000e+00    
           3.67422072e-05     4.23170532e-05     0.00000000e+00    
           3.67514185e-05     4.27059713e-05     0.00000000e+00    
           2.59711796e-05     1.83319771e-05     0.00000000e+00    
           2.55044852e-05     1.83512821e-05     0.00000000e+00    
           2.47909247e-05     1.83373177e-05     0.00000000e+00    
           2.40426816e-05     1.82822423e-05     0.00000000e+00    
           2.35058487e-05     1.83062948e-05     0.00000000e+00    
           2.31528229e-05     1.81454416e-05     0.00000000e+00    
           2.29524358e-05     1.74218148e-05     0.00000000e+00    
           2.28714925e-05     1.66974605e-05     0.00000000e+00    
           2.28412773e-05     1.61630596e-05     0.00000000e+00    
           2.28488552e-05     1.56908463e-05     0.00000000e+00    
           2.28029421e-05     1.53083311e-05     0.00000000e+00    
           2.27816072e-05     1.47817045e-05     0.00000000e+00    
           2.33118462e-05     1.48406107e-05     0.00000000e+00    
           2.40520494e-05     1.50340138e-05     0.00000000e+00    
           2.46312429e-05     1.52946232e-05     0.00000000e+00    
           2.50794728e-05     1.55911857e-05     0.00000000e+00    
           2.53946164e-05     1.59474530e-05     0.00000000e+00    
           2.56324365e-05     1.63399491e-05     0.00000000e+00    
           2.57773099e-05     1.67401631e-05     0.00000000e+00    
           2.58725813e-05     1.71492647e-05     0.00000000e+00    
           2.59207100e-05     1.75172281e-05     0.00000000e+00    
           2.59549815e-05     1.78608952e-05     0.00000000e+00    
           4.49380923e-06     8.91127729e-06     0.00000000e+00    
           4.78904076e-06     8.50077504e-06     0.00000000e+00    
           5.10326072e-06     8.05097261e-06     0.00000000e+00    
           5.44121622e-06     7.53289032e-06     0.00000000e+00    
           5.79293464e-06     7.16454861e-06     0.00000000e+00    
           6.08825758e-06     7.15359783e-06     0.00000000e+00    
           6.46258923e-06     7.39196548e-06     0.00000000e+00    
           6.92618278e-06     7.67903202e-06     0.00000000e+00    
           7.52826918e-06     7.90725881e-06     0.00000000e+00    
           7.92256833e-06     8.43729777e-06     0.00000000e+00    
           7.62065383e-06     8.74131638e-06     0.00000000e+00    
           7.42759403e-06     9.13627355e-06     0.00000000e+00    
           7.28492887e-06     9.56454278e-06     0.00000000e+00    
           7.19543141e-06     9.95513710e-06     0.00000000e+00    
           7.10156428e-06     1.01916212e-05     0.00000000e+00    
           6.93460879e-06     1.02320428e-05     0.00000000e+00    
           6.67975382e-06     1.02326630e-05     0.00000000e+00    
           6.36746699e-06     1.02287440e-05     0.00000000e+00    
           5.55490078e-05     1.01623218e-05     0.00000000e+00    
           5.49209290e-05     1.00053403e-05     0.00000000e+00    
           5.42393354e-05     9.76544470e-06     0.00000000e+00    
           5.38819004e-05     9.45930606e-06     0.00000000e+00    
           7.02822945e-06     2.55482719e-05     0.00000000e+00    
           6.59891020e-06     2.56042404e-05     0.00000000e+00    
           5.91057460e-06     2.55692776e-05     0.00000000e+00    
           5.29198542e-06     2.54864317e-05     0.00000000e+00    
           4.75133902e-06     2.53828184e-05     0.00000000e+00    
           4.31091848e-06     2.52440313e-05     0.00000000e+00    
           4.03245940e-06     2.50604553e-05     0.00000000e+00    
           3.92152378e-06     2.47244661e-05     0.00000000e+00    
           3.89514253e-06     2.42773513e-05     0.00000000e+00    
           3.94132121e-06     2.38998655e-05     0.00000000e+00    
           4.15554723e-06     2.36118467e-05     0.00000000e+00    
           5.03261754e-06     2.30785226e-05     0.00000000e+00    
           5.48441403e-06     2.28508070e-05     0.00000000e+00    
           5.90581976e-06     2.26816883e-05     0.00000000e+00    
           6.24302129e-06     2.25663898e-05     0.00000000e+00    
           6.50637048e-06     2.25286549e-05     0.00000000e+00    
           6.67615086e-06     2.27298951e-05     0.00000000e+00    
           6.79921277e-06     2.31438680e-05     0.00000000e+00    
           6.89971648e-06     2.36062297e-05     0.00000000e+00    
           6.94002802e-06     2.40555710e-05     0.00000000e+00    