<?xml version="1.0"?>
<VTKFile type="UnstructuredGrid" version="0.1">
  <UnstructuredGrid>
    <Piece NumberOfPoints="1034" NumberOfCells="1614">
      <Points>
        <DataArray type="Float32" NumberOfComponents="3">
           5.21582007e-01     5.11657000e-01     0.00000000e+00    
           5.07319987e-01     5.11657000e-01     0.00000000e+00    
           4.65243995e-01     5.17907977e-01     0.00000000e+00    
           4.65243995e-01     5.04921973e-01     0.00000000e+00    
           4.75246996e-01     5.11415005e-01     0.00000000e+00    
           5.33852994e-01     5.04921973e-01     0.00000000e+00    
           5.33852994e-01     5.17907977e-01     0.00000000e+00    
           4.83779997e-01     5.34618974e-01     0.00000000e+00    
           4.68984991e-01     5.34618974e-01     0.00000000e+00    
           4.76381987e-01     5.23841977e-01     0.00000000e+00    
           4.68984991e-01     4.66010004e-01     0.00000000e+00    
           4.83779997e-01     4.66010004e-01     0.00000000e+00    
           4.99920011e-01     5.34618974e-01     0.00000000e+00    
           4.89203990e-01     5.34618974e-01     0.00000000e+00    
           4.94562000e-01     5.22280991e-01     0.00000000e+00    
           4.89203990e-01     4.66010004e-01     0.00000000e+00    
           4.99920011e-01     4.66010004e-01     0.00000000e+00    
           5.32517016e-01     4.74112004e-01     0.00000000e+00    
           5.17961025e-01     4.74112004e-01     0.00000000e+00    
           5.33852994e-01     5.19801974e-01     0.00000000e+00    
           5.33852994e-01     5.29603004e-01     0.00000000e+00    
           5.19536972e-01     5.24702013e-01     0.00000000e+00    
           4.65243995e-01     5.29603004e-01     0.00000000e+00    
           4.65243995e-01     5.19801974e-01     0.00000000e+00    
           4.92487997e-01     5.17117977e-01     0.00000000e+00    
           4.76904988e-01     5.17117977e-01     0.00000000e+00    
           5.17996013e-01     5.27033985e-01     0.00000000e+00    
           5.04473984e-01     5.27033985e-01     0.00000000e+00    
           5.08446991e-01     4.83435005e-01     0.00000000e+00    
           4.94414002e-01     4.83435005e-01     0.00000000e+00    
           4.65243995e-01     4.83101994e-01     0.00000000e+00    
           4.65243995e-01     4.74415004e-01     0.00000000e+00    
           4.78336990e-01     4.78758007e-01     0.00000000e+00    
           5.33852994e-01     4.74415004e-01     0.00000000e+00    
           5.33852994e-01     4.83101994e-01     0.00000000e+00    
           4.80668008e-01     4.95810986e-01     0.00000000e+00    
           4.66084987e-01     4.95810986e-01     0.00000000e+00    
           4.93930012e-01     4.79214013e-01     0.00000000e+00    
           4.78967011e-01     4.79214013e-01     0.00000000e+00    
           5.09284973e-01     4.97658014e-01     0.00000000e+00    
           4.95503992e-01     4.97658014e-01     0.00000000e+00    
           5.33011973e-01     5.01751006e-01     0.00000000e+00    
           5.17829001e-01     5.01751006e-01     0.00000000e+00    
           4.95451003e-01     5.00564992e-01     0.00000000e+00    
           4.80922014e-01     5.00564992e-01     0.00000000e+00    
           5.25367022e-01     4.88312006e-01     0.00000000e+00    
           5.09521008e-01     4.88312006e-01     0.00000000e+00    
           4.65243995e-01     5.34618974e-01     0.00000000e+00    
           4.65243995e-01     4.66010004e-01     0.00000000e+00    
           5.33852994e-01     4.66010004e-01     0.00000000e+00    
           5.33852994e-01     5.34618974e-01     0.00000000e+00    
           5.21338999e-01     5.13502657e-01     0.00000000e+00    
           5.20626605e-01     5.15222490e-01     0.00000000e+00    
           5.19493401e-01     5.16699374e-01     0.00000000e+00    
           5.18016517e-01     5.17832637e-01     0.00000000e+00    
           5.16296625e-01     5.18545032e-01     0.00000000e+00    
           5.14451027e-01     5.18787980e-01     0.00000000e+00    
           5.12605369e-01     5.18545032e-01     0.00000000e+00    
           5.10885477e-01     5.17832637e-01     0.00000000e+00    
           5.09408593e-01     5.16699374e-01     0.00000000e+00    
           5.08275390e-01     5.15222490e-01     0.00000000e+00    
           5.07562995e-01     5.13502657e-01     0.00000000e+00    
           5.07562995e-01     5.09811342e-01     0.00000000e+00    
           5.08275390e-01     5.08091509e-01     0.00000000e+00    
           5.09408593e-01     5.06614625e-01     0.00000000e+00    
           5.10885477e-01     5.05481362e-01     0.00000000e+00    
           5.12605369e-01     5.04768968e-01     0.00000000e+00    
           5.14451027e-01     5.04526019e-01     0.00000000e+00    
           5.16296625e-01     5.04768968e-01     0.00000000e+00    
           5.18016517e-01     5.05481362e-01     0.00000000e+00    
           5.19493401e-01     5.06614625e-01     0.00000000e+00    
           5.20626605e-01     5.08091509e-01     0.00000000e+00    
           5.21338999e-01     5.09811342e-01     0.00000000e+00    
           4.66931671e-01     5.04409373e-01     0.00000000e+00    
           4.68693614e-01     5.04328012e-01     0.00000000e+00    
           4.70421344e-01     5.04682958e-01     0.00000000e+00    
           4.72008497e-01     5.05452335e-01     0.00000000e+00    
           4.73357379e-01     5.06588817e-01     0.00000000e+00    
           4.74384934e-01     5.08022368e-01     0.00000000e+00    
           4.75027919e-01     5.09664834e-01     0.00000000e+00    
           4.75028187e-01     5.13165236e-01     0.00000000e+00    
           4.74385172e-01     5.14807761e-01     0.00000000e+00    
           4.73357558e-01     5.16241372e-01     0.00000000e+00    
           4.72008646e-01     5.17377913e-01     0.00000000e+00    
           4.70421433e-01     5.18147290e-01     0.00000000e+00    
           4.68693614e-01     5.18502235e-01     0.00000000e+00    
           4.66931641e-01     5.18420875e-01     0.00000000e+00    
           5.32303810e-01     5.16964078e-01     0.00000000e+00    
           5.31043947e-01     5.15658796e-01     0.00000000e+00    
           5.30155540e-01     5.14077127e-01     0.00000000e+00    
           5.29696345e-01     5.12322068e-01     0.00000000e+00    
           5.29696345e-01     5.10507941e-01     0.00000000e+00    
           5.30155540e-01     5.08752882e-01     0.00000000e+00    
           5.31043947e-01     5.07171214e-01     0.00000000e+00    
           5.32303810e-01     5.05865932e-01     0.00000000e+00    
           4.68517244e-01     5.32760799e-01     0.00000000e+00    
           4.68509018e-01     5.30844629e-01     0.00000000e+00    
           4.68960851e-01     5.28982460e-01     0.00000000e+00    
           4.69846308e-01     5.27283132e-01     0.00000000e+00    
           4.71113682e-01     5.25845945e-01     0.00000000e+00    
           4.72688884e-01     5.24754822e-01     0.00000000e+00    
           4.74479854e-01     5.24073541e-01     0.00000000e+00    
           4.78284091e-01     5.24073601e-01     0.00000000e+00    
           4.80075032e-01     5.24754822e-01     0.00000000e+00    
           4.81650203e-01     5.25845885e-01     0.00000000e+00    
           4.82917547e-01     5.27283013e-01     0.00000000e+00    
           4.83803004e-01     5.28982282e-01     0.00000000e+00    
           4.84254897e-01     5.30844331e-01     0.00000000e+00    
           4.84246761e-01     5.32760441e-01     0.00000000e+00    
           4.82887864e-01     4.67691004e-01     0.00000000e+00    
           4.81620818e-01     4.69110936e-01     0.00000000e+00    
           4.80051905e-01     4.70188022e-01     0.00000000e+00    
           4.78271484e-01     4.70860153e-01     0.00000000e+00    
           4.76382166e-01     4.71088618e-01     0.00000000e+00    
           4.74492878e-01     4.70860243e-01     0.00000000e+00    
           4.72712427e-01     4.70188200e-01     0.00000000e+00    
           4.71143454e-01     4.69111174e-01     0.00000000e+00    
           4.69876349e-01     4.67691302e-01     0.00000000e+00    
           4.88103986e-01     5.33086061e-01     0.00000000e+00    
           4.87431526e-01     5.31323195e-01     0.00000000e+00    
           4.87231195e-01     5.29447019e-01     0.00000000e+00    
           4.87516224e-01     5.27581930e-01     0.00000000e+00    
           4.88267750e-01     5.25851250e-01     0.00000000e+00    
           4.89436030e-01     5.24369657e-01     0.00000000e+00    
           4.90943670e-01     5.23235261e-01     0.00000000e+00    
           4.92690891e-01     5.22523046e-01     0.00000000e+00    
           4.96432930e-01     5.22523701e-01     0.00000000e+00    
           4.98180002e-01     5.23235798e-01     0.00000000e+00    
           4.99687493e-01     5.24370134e-01     0.00000000e+00    
           5.00855684e-01     5.25851607e-01     0.00000000e+00    
           5.01607120e-01     5.27582109e-01     0.00000000e+00    
           5.01892149e-01     5.29447079e-01     0.00000000e+00    
           5.01691818e-01     5.31323016e-01     0.00000000e+00    
           5.01019418e-01     5.33085763e-01     0.00000000e+00    
           4.98371124e-01     4.67269689e-01     0.00000000e+00    
           4.96539861e-01     4.68064904e-01     0.00000000e+00    
           4.94562000e-01     4.68336672e-01     0.00000000e+00    
           4.92584139e-01     4.68064904e-01     0.00000000e+00    
           4.90752876e-01     4.67269689e-01     0.00000000e+00    
           5.32269001e-01     4.75995690e-01     0.00000000e+00    
           5.31541944e-01     4.77750987e-01     0.00000000e+00    
           5.30385315e-01     4.79258329e-01     0.00000000e+00    
           5.28877974e-01     4.80414927e-01     0.00000000e+00    
[...]
      <PointData>
        <DataArray type="Float32" Name="Displacement" NumberOfComponents="3">
           1.34610326e-03     1.20542396e-03     0.00000000e+00    
           1.32503873e-03     1.19294843e-03     0.00000000e+00    
           2.51806032e-05     1.21431996e-03     0.00000000e+00    
           3.06719121e-05     1.19643414e-03     0.00000000e+00    
           4.33289606e-05     1.21007557e-03     0.00000000e+00    
           1.83067191e-03     1.19643414e-03     0.00000000e+00    
           1.82518060e-03     1.21431996e-03     0.00000000e+00    
           2.69641168e-04     1.74321886e-03     0.00000000e+00    
           2.48141732e-04     1.75307109e-03     0.00000000e+00    
           2.52444035e-04     1.73218222e-03     0.00000000e+00    
           2.48141732e-04    -4.69289007e-05     0.00000000e+00    
           2.69641168e-04    -5.67811803e-05     0.00000000e+00    
           6.87266933e-04     1.68830494e-03     0.00000000e+00    
           6.71264483e-04     1.68437464e-03     0.00000000e+00    
           6.83164806e-04     1.66838348e-03     0.00000000e+00    
           6.71264483e-04    -1.15625320e-04     0.00000000e+00    
           6.87266933e-04    -1.11695103e-04     0.00000000e+00    
           1.62042072e-03     2.44326424e-04     0.00000000e+00    
           1.59930834e-03     2.44100273e-04     0.00000000e+00    
           1.64086395e-03     1.53815665e-03     0.00000000e+00    
           1.64269365e-03     1.55263161e-03     0.00000000e+00    
           1.62130361e-03     1.54748128e-03     0.00000000e+00    
          -1.57306335e-04     1.55263161e-03     0.00000000e+00    
          -1.59136005e-04     1.53815665e-03     0.00000000e+00    
           4.39472904e-04     1.37869874e-03     0.00000000e+00    
           4.16786672e-04     1.38328457e-03     0.00000000e+00    
           1.24998752e-03     1.58614712e-03     0.00000000e+00    
           1.23034336e-03     1.58351380e-03     0.00000000e+00    
           9.27438203e-04     5.37576503e-04     0.00000000e+00    
           9.07399808e-04     5.33272920e-04     0.00000000e+00    
           1.38465301e-04     3.42845364e-04     0.00000000e+00    
           1.41095312e-04     3.30822193e-04     0.00000000e+00    
           1.58661933e-04     3.40262923e-04     0.00000000e+00    
           1.94109534e-03     3.30822193e-04     0.00000000e+00    
           1.93846528e-03     3.42845364e-04     0.00000000e+00    
           1.89052182e-04     8.25011113e-04     0.00000000e+00    
           1.68021958e-04     8.34959908e-04     0.00000000e+00    
           4.89026483e-04     3.68888985e-04     0.00000000e+00    
           4.67840960e-04     3.62408580e-04     0.00000000e+00    
           9.62153077e-04     7.96657871e-04     0.00000000e+00    
           9.42259154e-04     8.13082268e-04     0.00000000e+00    
           1.58888253e-03     9.82161961e-04     0.00000000e+00    
           1.56662753e-03     9.81438789e-04     0.00000000e+00    
           5.45529823e-04     9.23679210e-04     0.00000000e+00    
           5.24931937e-04     9.31708899e-04     0.00000000e+00    
           1.37234468e-03     6.36017474e-04     0.00000000e+00    
           1.34911411e-03     6.30413997e-04     0.00000000e+00    
           0.00000000e+00     1.79999997e-03     0.00000000e+00    
           0.00000000e+00     0.00000000e+00     0.00000000e+00    
           1.79999997e-03     0.00000000e+00     0.00000000e+00    
           1.79999997e-03     1.79999997e-03     0.00000000e+00    
           1.34398090e-03     1.20853854e-03     0.00000000e+00    
           1.34134176e-03     1.21042226e-03     0.00000000e+00    
           1.33817201e-03     1.21173752e-03     0.00000000e+00    
           1.33485510e-03     1.21217768e-03     0.00000000e+00    
           1.33159873e-03     1.21141900e-03     0.00000000e+00    
           1.32872106e-03     1.20984530e-03     0.00000000e+00    
           1.32672279e-03     1.20779104e-03     0.00000000e+00    
           1.32512639e-03     1.20546459e-03     0.00000000e+00    
           1.32369308e-03     1.20271579e-03     0.00000000e+00    
           1.32322998e-03     1.19926932e-03     0.00000000e+00    
           1.32359460e-03     1.19602378e-03     0.00000000e+00    
           1.32697914e-03     1.19016762e-03     0.00000000e+00    
           1.32988684e-03     1.18830428e-03     0.00000000e+00    
           1.33290084e-03     1.18706340e-03     0.00000000e+00    
           1.33638782e-03     1.18659553e-03     0.00000000e+00    
           1.33991765e-03     1.18741544e-03     0.00000000e+00    
           1.34327286e-03     1.18906656e-03     0.00000000e+00    
           1.34583528e-03     1.19161094e-03     0.00000000e+00    
           1.34729815e-03     1.19473820e-03     0.00000000e+00    
           1.34760758e-03     1.19748246e-03     0.00000000e+00    
           1.34729058e-03     1.19992101e-03     0.00000000e+00    
           1.34676252e-03     1.20249204e-03     0.00000000e+00    
           3.37244965e-05     1.19577534e-03     0.00000000e+00    
           3.67050670e-05     1.19650154e-03     0.00000000e+00    
           3.88817316e-05     1.19780283e-03     0.00000000e+00    
           4.08024898e-05     1.19944313e-03     0.00000000e+00    
           4.25029393e-05     1.20168179e-03     0.00000000e+00    
           4.35904512e-05     1.20425655e-03     0.00000000e+00    
           4.37841773e-05     1.20731059e-03     0.00000000e+00    
           4.20077195e-05     1.21252600e-03     0.00000000e+00    
           4.03852609e-05     1.21447211e-03     0.00000000e+00    
           3.82341168e-05     1.21620554e-03     0.00000000e+00    
           3.57425415e-05     1.21733279e-03     0.00000000e+00    
           3.29492541e-05     1.21775689e-03     0.00000000e+00    
           2.98530595e-05     1.21758215e-03     0.00000000e+00    
           2.70700857e-05     1.21606467e-03     0.00000000e+00    
           1.82398304e-03     1.21247175e-03     0.00000000e+00    
           1.82295637e-03     1.21041411e-03     0.00000000e+00    
           1.82202342e-03     1.20747532e-03     0.00000000e+00    
           1.82201702e-03     1.20441755e-03     0.00000000e+00    
           1.82330795e-03     1.20134419e-03     0.00000000e+00    
           1.82513474e-03     1.19918981e-03     0.00000000e+00    
           1.82688283e-03     1.19806291e-03     0.00000000e+00    
           1.82866200e-03     1.19726441e-03     0.00000000e+00    
           2.45972915e-04     1.75031309e-03     0.00000000e+00    
           2.44793802e-04     1.74724264e-03     0.00000000e+00    
           2.44424737e-04     1.74423645e-03     0.00000000e+00    
           2.44573923e-04     1.74115459e-03     0.00000000e+00    
           2.45541101e-04     1.73829938e-03     0.00000000e+00    
           2.47291609e-04     1.73560879e-03     0.00000000e+00    
           2.49804056e-04     1.73343951e-03     0.00000000e+00    
           2.55280902e-04     1.73154962e-03     0.00000000e+00    
           2.57709762e-04     1.73137768e-03     0.00000000e+00    
           2.60301196e-04     1.73156802e-03     0.00000000e+00    
           2.63185269e-04     1.73230388e-03     0.00000000e+00    
           2.65933690e-04     1.73442601e-03     0.00000000e+00    
           2.67890544e-04     1.73700391e-03     0.00000000e+00    
           2.69252632e-04     1.73990126e-03     0.00000000e+00    
           2.69284676e-04    -5.36483130e-05     0.00000000e+00    
           2.68269418e-04    -5.05584612e-05     0.00000000e+00    
           2.66454474e-04    -4.80650451e-05     0.00000000e+00    
           2.64033675e-04    -4.59109870e-05     0.00000000e+00    
           2.61454639e-04    -4.48188657e-05     0.00000000e+00    
           2.59038439e-04    -4.41324737e-05     0.00000000e+00    
           2.56545638e-04    -4.36826522e-05     0.00000000e+00    
           2.53774109e-04    -4.39153046e-05     0.00000000e+00    
           2.50659243e-04    -4.50427797e-05     0.00000000e+00    
           6.70250680e-04     1.68154342e-03     0.00000000e+00    
           6.69935835e-04     1.67858275e-03     0.00000000e+00    
           6.70458190e-04     1.67572498e-03     0.00000000e+00    
           6.71603950e-04     1.67278305e-03     0.00000000e+00    
           6.73928065e-04     1.67064404e-03     0.00000000e+00    
           6.76016964e-04     1.66964438e-03     0.00000000e+00    
           6.78087701e-04     1.66896859e-03     0.00000000e+00    
           6.80262339e-04     1.66842947e-03     0.00000000e+00    
           6.86211220e-04     1.66908873e-03     0.00000000e+00    
           6.88869390e-04     1.67091971e-03     0.00000000e+00    
           6.90879941e-04     1.67342729e-03     0.00000000e+00    
           6.92059577e-04     1.67607481e-03     0.00000000e+00    
           6.92243979e-04     1.67881546e-03     0.00000000e+00    
           6.91982452e-04     1.68134179e-03     0.00000000e+00    
           6.91208348e-04     1.68398372e-03     0.00000000e+00    
           6.89490349e-04     1.68632867e-03     0.00000000e+00    
           6.84544793e-04    -1.10447669e-04     0.00000000e+00    
           6.81505655e-04    -1.09908302e-04     0.00000000e+00    
           6.78427983e-04    -1.10090048e-04     0.00000000e+00    
           6.75483549e-04    -1.11313748e-04     0.00000000e+00    
           6.73209899e-04    -1.13229427e-04     0.00000000e+00    
           1.61988346e-03     2.46551237e-04     0.00000000e+00    
           1.61915133e-03     2.48427910e-04     0.00000000e+00    
           1.61802233e-03     2.50718673e-04     0.00000000e+00    
           1.61555468e-03     2.52854283e-04     0.00000000e+00    
           1.61245966e-03     2.54066748e-04     0.00000000e+00    
           1.60951843e-03     2.54229322e-04     0.00000000e+00    
           1.60700898e-03     2.53683946e-04     0.00000000e+00    
           1.60501071e-03     2.52838654e-04     0.00000000e+00    
           1.60333875e-03     2.51732912e-04     0.00000000e+00    
           1.60129357e-03     2.49974080e-04     0.00000000e+00    
           1.59981207e-03     2.47359480e-04     0.00000000e+00    
           1.59960415e-03     2.41183589e-04     0.00000000e+00    
           1.60083303e-03     2.38145134e-04     0.00000000e+00    
           1.60274690e-03     2.35771833e-04     0.00000000e+00    
           1.60514947e-03     2.34230596e-04     0.00000000e+00    
           1.60768814e-03     2.33513201e-04     0.00000000e+00    
           1.61003461e-03     2.33307510e-04     0.00000000e+00    
           1.61245372e-03     2.33481594e-04     0.00000000e+00    
           1.61509926e-03     2.34239691e-04     0.00000000e+00    
           1.61755702e-03     2.36077161e-04     0.00000000e+00    
           1.61938800e-03     2.38605149e-04     0.00000000e+00    
           1.62047532e-03     2.41404792e-04     0.00000000e+00    
           1.64091459e-03     1.55476725e-03     0.00000000e+00    
           1.63872784e-03     1.55654049e-03     0.00000000e+00    
           1.63608498e-03     1.55785820e-03     0.00000000e+00    
           1.63308810e-03     1.55824062e-03     0.00000000e+00    
           1.62999728e-03     1.55804073e-03     0.00000000e+00    
           1.62698224e-03     1.55688717e-03     0.00000000e+00    
           1.62461156e-03     1.55475002e-03     0.00000000e+00    
           1.62286079e-03     1.55230879e-03     0.00000000e+00    
           1.62186474e-03     1.54987478e-03     0.00000000e+00    
           1.62112236e-03     1.54466962e-03     0.00000000e+00    
           1.62185857e-03     1.54187775e-03     0.00000000e+00    
           1.62335439e-03     1.53909030e-03     0.00000000e+00    
           1.62566942e-03     1.53695280e-03     0.00000000e+00    
           1.62810343e-03     1.53552601e-03     0.00000000e+00    
           1.63127598e-03     1.53469492e-03     0.00000000e+00    
           1.63424201e-03     1.53479818e-03     0.00000000e+00    
           1.63678185e-03     1.53560773e-03     0.00000000e+00    
           1.63885858e-03     1.53670646e-03     0.00000000e+00    
          -1.57378323e-04     1.54011382e-03     0.00000000e+00    
          -1.56083654e-04     1.54252653e-03     0.00000000e+00    
          -1.55541115e-04     1.54517789e-03     0.00000000e+00    
          -1.55681802e-04     1.54796138e-03     0.00000000e+00    
          -1.56277281e-04     1.55030994e-03     0.00000000e+00    
           4.39550466e-04     1.38173671e-03     0.00000000e+00    
           4.38843068e-04     1.38468179e-03     0.00000000e+00    
           4.37565992e-04     1.38673803e-03     0.00000000e+00    
           4.36416711e-04     1.38848671e-03     0.00000000e+00    
           4.34702932e-04     1.39026518e-03     0.00000000e+00    
           4.32032015e-04     1.39190303e-03     0.00000000e+00    
           4.29009466e-04     1.39220478e-03     0.00000000e+00    
           4.26517741e-04     1.39203086e-03     0.00000000e+00    
           4.24199883e-04     1.39149826e-03     0.00000000e+00    
           4.21959732e-04     1.39063282e-03     0.00000000e+00    
           4.19382559e-04     1.38881861e-03     0.00000000e+00    
           4.17714182e-04     1.38598401e-03     0.00000000e+00    
           4.16577008e-04     1.38034206e-03     0.00000000e+00    
           4.16952302e-04     1.37766625e-03     0.00000000e+00    
           4.17925272e-04     1.37486227e-03     0.00000000e+00    
           4.19710006e-04     1.37248507e-03     0.00000000e+00    
           4.22091107e-04     1.37074769e-03     0.00000000e+00    
           4.24919388e-04     1.36972172e-03     0.00000000e+00    
           4.27307416e-04     1.36937131e-03     0.00000000e+00    
           4.29654872e-04     1.36931986e-03     0.00000000e+00    
           4.32325964e-04     1.36982545e-03     0.00000000e+00    
           4.34810005e-04     1.37120369e-03     0.00000000e+00    
           4.37037204e-04     1.37327774e-03     0.00000000e+00    
           4.38650488e-04     1.37585821e-03     0.00000000e+00    
           1.24950230e-03     1.58875785e-03     0.00000000e+00    
           1.24783721e-03     1.59129640e-03     0.00000000e+00    
           1.24548096e-03     1.59327942e-03     0.00000000e+00    
           1.24282844e-03     1.59439421e-03     0.00000000e+00    
           1.23998814e-03     1.59461482e-03     0.00000000e+00    
           1.23733236e-03     1.59419444e-03     0.00000000e+00    
           1.23468961e-03     1.59315544e-03     0.00000000e+00    
           1.23250403e-03     1.59124797e-03     0.00000000e+00    
           1.23083580e-03     1.58882956e-03     0.00000000e+00    
           1.23026944e-03     1.58605515e-03     0.00000000e+00    
           1.23091543e-03     1.58083893e-03     0.00000000e+00    
           1.23247236e-03     1.57823728e-03     0.00000000e+00    
           1.23483734e-03     1.57622853e-03     0.00000000e+00    
           1.23788905e-03     1.57474354e-03     0.00000000e+00    
           1.24110247e-03     1.57477264e-03     0.00000000e+00    
           1.24356255e-03     1.57548161e-03     0.00000000e+00    
           1.24580052e-03     1.57648209e-03     0.00000000e+00    
           1.24827062e-03     1.57829595e-03     0.00000000e+00    
           1.24963047e-03     1.58110855e-03     0.00000000e+00    
           1.25011685e-03     1.58374512e-03     0.00000000e+00    
           9.26669047e-04     5.39828499e-04     0.00000000e+00    
           9.25338187e-04     5.41899411e-04     0.00000000e+00    
           9.23456391e-04     5.44065726e-04     0.00000000e+00    
           9.20542225e-04     5.45260147e-04     0.00000000e+00    
           9.18065547e-04     5.45470277e-04     0.00000000e+00    
           9.16146091e-04     5.45280112e-04     0.00000000e+00    
           9.14003991e-04     5.44787268e-04     0.00000000e+00    
           9.11456242e-04     5.43948438e-04     0.00000000e+00    
           9.08890972e-04     5.41675661e-04     0.00000000e+00    
           9.07535839e-04     5.38801774e-04     0.00000000e+00    
           9.07024601e-04     5.35900530e-04     0.00000000e+00    
           9.08162852e-04     5.31363359e-04     0.00000000e+00    
           9.09184630e-04     5.29494893e-04     0.00000000e+00    
           9.10676667e-04     5.27619442e-04     0.00000000e+00    
           9.12870571e-04     5.26169257e-04     0.00000000e+00    
           9.15561395e-04     5.25196781e-04     0.00000000e+00    
           9.18577018e-04     5.24933799e-04     0.00000000e+00    
           9.21412255e-04     5.25780895e-04     0.00000000e+00    
           9.23906511e-04     5.27243596e-04     0.00000000e+00    
           9.26039880e-04     5.29504148e-04     0.00000000e+00    
           9.27364337e-04     5.32010512e-04     0.00000000e+00    
           9.27897694e-04     5.34882420e-04     0.00000000e+00    
           1.43158337e-04     3.29113798e-04     0.00000000e+00    
           1.45845610e-04     3.27687012e-04     0.00000000e+00    
           1.48886364e-04     3.27367889e-04     0.00000000e+00    
           1.51639135e-04     3.28108756e-04     0.00000000e+00    
           1.53784640e-04     3.29124450e-04     0.00000000e+00    
           1.55600632e-04     3.30472307e-04     0.00000000e+00    
           1.57691567e-04     3.32437630e-04     0.00000000e+00    
           1.58901967e-04     3.35570454e-04     0.00000000e+00    
           1.59018120e-04     3.38234357e-04     0.00000000e+00    
           1.58059003e-04     3.42261774e-04     0.00000000e+00    
           1.57038594e-04     3.44483153e-04     0.00000000e+00    
           1.55159680e-04     3.46774090e-04     0.00000000e+00    
           1.52664084e-04     3.48505593e-04     0.00000000e+00    
           1.49691507e-04     3.49076785e-04     0.00000000e+00    
           1.47145474e-04     3.48982605e-04     0.00000000e+00    
           1.44569873e-04     3.48460017e-04     0.00000000e+00    
           1.42220902e-04     3.47147230e-04     0.00000000e+00    
           1.40085729e-04     3.45266046e-04     0.00000000e+00    
           1.93757191e-03     3.39888938e-04     0.00000000e+00    
           1.93766144e-03     3.36728146e-04     0.00000000e+00    
           1.93861860e-03     3.34336975e-04     0.00000000e+00    
           1.93975458e-03     3.32645315e-04     0.00000000e+00    
           1.89899292e-04     8.27381038e-04     0.00000000e+00    
           1.90339561e-04     8.29939789e-04     0.00000000e+00    
           1.90092876e-04     8.33059661e-04     0.00000000e+00    
           1.88611040e-04     8.36060150e-04     0.00000000e+00    
           1.86234916e-04     8.38552718e-04     0.00000000e+00    
           1.83553464e-04     8.40287423e-04     0.00000000e+00    
           1.80751857e-04     8.41082248e-04     0.00000000e+00    
           1.77902417e-04     8.41461122e-04     0.00000000e+00    
           1.74749672e-04     8.40923691e-04     0.00000000e+00    
           1.71867810e-04     8.39593005e-04     0.00000000e+00    
           1.69693725e-04     8.37429019e-04     0.00000000e+00    
           1.66928497e-04     8.32157733e-04     0.00000000e+00    
           1.66572514e-04     8.28741642e-04     0.00000000e+00    
           1.67492137e-04     8.25458090e-04     0.00000000e+00    
           1.68969593e-04     8.22832168e-04     0.00000000e+00    
           1.70986590e-04     8.20565387e-04     0.00000000e+00    
           1.73388282e-04     8.18897330e-04     0.00000000e+00    
           1.76231246e-04     8.17713211e-04     0.00000000e+00    
           1.79327893e-04     8.17556225e-04     0.00000000e+00    
           1.82543197e-04     8.18289875e-04     0.00000000e+00    