<?xml version="1.0"?>
<VTKFile type="UnstructuredGrid" version="0.1">
  <UnstructuredGrid>
    <Piece NumberOfPoints="1034" NumberOfCells="1614">
      <Points>
        <DataArray type="Float32" NumberOfComponents="3">
           5.21582007e-01     5.11657000e-01     0.00000000e+00    
           5.07319987e-01     5.11657000e-01     0.00000000e+00    
           4.65243995e-01     5.17907977e-01     0.00000000e+00    
           4.65243995e-01     5.04921973e-01     0.00000000e+00    
           4.75246996e-01     5.11415005e-01     0.00000000e+00    
           5.33852994e-01     5.04921973e-01     0.00000000e+00    
           5.33852994e-01     5.17907977e-01     0.00000000e+00    
           4.83779997e-01     5.34618974e-01     0.00000000e+00    
           4.68984991e-01     5.34618974e-01     0.00000000e+00    
           4.76381987e-01     5.23841977e-01     0.00000000e+00    
           4.68984991e-01     4.66010004e-01     0.00000000e+00    
           4.83779997e-01     4.66010004e-01     0.00000000e+00    
           4.99920011e-01     5.34618974e-01     0.00000000e+00    
           4.89203990e-01     5.34618974e-01     0.00000000e+00    
           4.94562000e-01     5.22280991e-01     0.00000000e+00    
           4.89203990e-01     4.66010004e-01     0.00000000e+00    
           4.99920011e-01     4.66010004e-01     0.00000000e+00    
           5.32517016e-01     4.74112004e-01     0.00000000e+00    
           5.17961025e-01     4.74112004e-01     0.00000000e+00    
           5.33852994e-01     5.19801974e-01     0.00000000e+00    
           5.33852994e-01     5.29603004e-01     0.00000000e+00    
           5.19536972e-01     5.24702013e-01     0.00000000e+00    
           4.65243995e-01     5.29603004e-01     0.00000000e+00    
           4.65243995e-01     5.19801974e-01     0.00000000e+00    
           4.92487997e-01     5.17117977e-01     0.00000000e+00    
           4.76904988e-01     5.17117977e-01     0.00000000e+00    
           5.17996013e-01     5.27033985e-01     0.00000000e+00    
           5.04473984e-01     5.27033985e-01     0.00000000e+00    
           5.08446991e-01     4.83435005e-01     0.00000000e+00    
           4.94414002e-01     4.83435005e-01     0.00000000e+00    
           4.65243995e-01     4.83101994e-01     0.00000000e+00    
           4.65243995e-01     4.74415004e-01     0.00000000e+00    
           4.78336990e-01     4.78758007e-01     0.00000000e+00    
           5.33852994e-01     4.74415004e-01     0.00000000e+00    
           5.33852994e-01     4.83101994e-01     0.00000000e+00    
           4.80668008e-01     4.95810986e-01     0.00000000e+00    
           4.66084987e-01     4.95810986e-01     0.00000000e+00    
           4.93930012e-01     4.79214013e-01     0.00000000e+00    
           4.78967011e-01     4.79214013e-01     0.00000000e+00    
           5.09284973e-01     4.97658014e-01     0.00000000e+00    
           4.95503992e-01     4.97658014e-01     0.00000000e+00    
           5.33011973e-01     5.01751006e-01     0.00000000e+00    
           5.17829001e-01     5.01751006e-01     0.00000000e+00    
           4.95451003e-01     5.00564992e-01     0.00000000e+00    
           4.80922014e-01     5.00564992e-01     0.00000000e+00    
           5.25367022e-01     4.88312006e-01     0.00000000e+00    
           5.09521008e-01     4.88312006e-01     0.00000000e+00    
           4.65243995e-01     5.34618974e-01     0.00000000e+00    
           4.65243995e-01     4.66010004e-01     0.00000000e+00    
           5.33852994e-01     4.66010004e-01     0.00000000e+00    
           5.33852994e-01     5.34618974e-01     0.00000000e+00    
           5.21338999e-01     5.13502657e-01     0.00000000e+00    
           5.20626605e-01     5.15222490e-01     0.00000000e+00    
           5.19493401e-01     5.16699374e-01     0.00000000e+00    
           5.18016517e-01     5.17832637e-01     0.00000000e+00    
           5.16296625e-01     5.18545032e-01     0.00000000e+00    
           5.14451027e-01     5.18787980e-01     0.00000000e+00    
           5.12605369e-01     5.18545032e-01     0.00000000e+00    
           5.10885477e-01     5.17832637e-01     0.00000000e+00    
           5.09408593e-01     5.16699374e-01     0.00000000e+00    
           5.08275390e-01     5.15222490e-01     0.00000000e+00    
           5.07562995e-01     5.13502657e-01     0.00000000e+00    
           5.07562995e-01     5.09811342e-01     0.00000000e+00    
           5.08275390e-01     5.08091509e-01     0.00000000e+00    
           5.09408593e-01     5.06614625e-01     0.00000000e+00    
           5.10885477e-01     5.05481362e-01     0.00000000e+00    
           5.12605369e-01     5.04768968e-01     0.00000000e+00    
           5.14451027e-01     5.04526019e-01     0.00000000e+00    
           5.16296625e-01     5.04768968e-01     0.00000000e+00    
           5.18016517e-01     5.05481362e-01     0.00000000e+00    
           5.19493401e-01     5.06614625e-01     0.00000000e+00    
           5.20626605e-01     5.08091509e-01     0.00000000e+00    
           5.21338999e-01     5.09811342e-01     0.00000000e+00    
           4.66931671e-01     5.04409373e-01     0.00000000e+00    
           4.68693614e-01     5.04328012e-01     0.00000000e+00    
           4.70421344e-01     5.04682958e-01     0.00000000e+00    
           4.72008497e-01     5.05452335e-01     0.00000000e+00    
           4.73357379e-01     5.06588817e-01     0.00000000e+00    
           4.74384934e-01     5.08022368e-01     0.00000000e+00    
           4.75027919e-01     5.09664834e-01     0.00000000e+00    
           4.75028187e-01     5.13165236e-01     0.00000000e+00    
           4.74385172e-01     5.14807761e-01     0.00000000e+00    
           4.73357558e-01     5.16241372e-01     0.00000000e+00    
           4.72008646e-01     5.17377913e-01     0.00000000e+00    
           4.70421433e-01     5.18147290e-01     0.00000000e+00    
           4.68693614e-01     5.18502235e-01     0.00000000e+00    
           4.66931641e-01     5.18420875e-01     0.00000000e+00    
           5.32303810e-01     5.16964078e-01     0.00000000e+00    
           5.31043947e-01     5.15658796e-01     0.00000000e+00    
           5.30155540e-01     5.14077127e-01     0.00000000e+00    
           5.29696345e-01     5.12322068e-01     0.00000000e+00    
           5.29696345e-01     5.10507941e-01     0.00000000e+00    
           5.30155540e-01     5.08752882e-01     0.00000000e+00    
           5.31043947e-01     5.07171214e-01     0.00000000e+00    
           5.32303810e-01     5.05865932e-01     0.00000000e+00    
           4.68517244e-01     5.32760799e-01     0.00000000e+00    
           4.68509018e-01     5.30844629e-01     0.00000000e+00    
           4.68960851e-01     5.28982460e-01     0.00000000e+00    
           4.69846308e-01     5.27283132e-01     0.00000000e+00    
           4.71113682e-01     5.25845945e-01     0.00000000e+00    
           4.72688884e-01     5.24754822e-01     0.00000000e+00    
           4.74479854e-01     5.24073541e-01     0.00000000e+00    
           4.78284091e-01     5.24073601e-01     0.00000000e+00    
           4.80075032e-01     5.24754822e-01     0.00000000e+00    
           4.81650203e-01     5.25845885e-01     0.00000000e+00    
           4.82917547e-01     5.27283013e-01     0.00000000e+00    
           4.83803004e-01     5.28982282e-01     0.00000000e+00    
           4.84254897e-01     5.30844331e-01     0.00000000e+00    
           4.84246761e-01     5.32760441e-01     0.00000000e+00    
           4.82887864e-01     4.67691004e-01     0.00000000e+00    
           4.81620818e-01     4.69110936e-01     0.00000000e+00    
           4.80051905e-01     4.70188022e-01     0.00000000e+00    
           4.78271484e-01     4.70860153e-01     0.00000000e+00    
           4.76382166e-01     4.71088618e-01     0.00000000e+00    
           4.74492878e-01     4.70860243e-01     0.00000000e+00    
           4.72712427e-01     4.70188200e-01     0.00000000e+00    
           4.71143454e-01     4.69111174e-01     0.00000000e+00    
           4.69876349e-01     4.67691302e-01     0.00000000e+00    
           4.88103986e-01     5.33086061e-01     0.00000000e+00    
           4.87431526e-01     5.31323195e-01     0.00000000e+00    
           4.87231195e-01     5.29447019e-01     0.00000000e+00    
           4.87516224e-01     5.27581930e-01     0.00000000e+00    
           4.88267750e-01     5.25851250e-01     0.00000000e+00    
           4.89436030e-01     5.24369657e-01     0.00000000e+00    
           4.90943670e-01     5.23235261e-01     0.00000000e+00    
           4.92690891e-01     5.22523046e-01     0.00000000e+00    
           4.96432930e-01     5.22523701e-01     0.00000000e+00    
           4.98180002e-01     5.23235798e-01     0.00000000e+00    
           4.99687493e-01     5.24370134e-01     0.00000000e+00    
           5.00855684e-01     5.25851607e-01     0.00000000e+00    
           5.01607120e-01     5.27582109e-01     0.00000000e+00    
           5.01892149e-01     5.29447079e-01     0.00000000e+00    
           5.01691818e-01     5.31323016e-01     0.00000000e+00    
           5.01019418e-01     5.33085763e-01     0.00000000e+00    
           4.98371124e-01     4.67269689e-01     0.00000000e+00    
           4.96539861e-01     4.68064904e-01     0.00000000e+00    
           4.94562000e-01     4.68336672e-01     0.00000000e+00    
           4.92584139e-01     4.68064904e-01     0.00000000e+00    
           4.90752876e-01     4.67269689e-01     0.00000000e+00    
           5.32269001e-01     4.75995690e-01     0.00000000e+00    
           5.31541944e-01     4.77750987e-01     0.00000000e+00    
           5.30385315e-01     4.79258329e-01     0.00000000e+00    
           5.28877974e-01     4.80414927e-01     0.00000000e+00    
[...]
      <PointData>
        <DataArray type="Float32" Name="Displacement" NumberOfComponents="3">
           1.13073387e-03     1.00876181e-03     0.00000000e+00    
           1.10974186e-03     9.97690833e-04     0.00000000e+00    
           1.36490908e-05     1.02060009e-03     0.00000000e+00    
           1.82816257e-05     1.00273045e-03     0.00000000e+00    
           3.13265482e-05     1.01582240e-03     0.00000000e+00    
           1.51828164e-03     1.00273045e-03     0.00000000e+00    
           1.51364913e-03     1.02060009e-03     0.00000000e+00    
           2.23961601e-04     1.45662762e-03     0.00000000e+00    
           2.02579904e-04     1.46579754e-03     0.00000000e+00    
           2.07346151e-04     1.44519925e-03     0.00000000e+00    
           2.02579904e-04    -3.42024941e-05     0.00000000e+00    
           2.23961601e-04    -4.33723471e-05     0.00000000e+00    
           5.64142654e-04     1.40998873e-03     0.00000000e+00    
           5.47965348e-04     1.40830141e-03     0.00000000e+00    
           5.57346561e-04     1.39137369e-03     0.00000000e+00    
           5.47965348e-04    -9.16985591e-05     0.00000000e+00    
           5.64142654e-04    -9.00112864e-05     0.00000000e+00    
           1.35805807e-03     2.09334161e-04     0.00000000e+00    
           1.33704091e-03     2.10807950e-04     0.00000000e+00    
           1.36944035e-03     1.28335424e-03     0.00000000e+00    
           1.37183117e-03     1.29784946e-03     0.00000000e+00    
           1.35023741e-03     1.29343232e-03     0.00000000e+00    
          -1.28168860e-04     1.29784946e-03     0.00000000e+00    
          -1.30559609e-04     1.28335424e-03     0.00000000e+00    
           3.57955461e-04     1.15858228e-03     0.00000000e+00    
           3.35383171e-04     1.16353680e-03     0.00000000e+00    
           1.04956981e-03     1.32147199e-03     0.00000000e+00    
           1.02997909e-03     1.31763157e-03     0.00000000e+00    
           7.69689970e-04     4.59915987e-04     0.00000000e+00    
           7.49738771e-04     4.55062633e-04     0.00000000e+00    
           1.15771065e-04     2.88228825e-04     0.00000000e+00    
           1.17832067e-04     2.76208419e-04     0.00000000e+00    
           1.35657698e-04     2.84811191e-04     0.00000000e+00    
           1.61783211e-03     2.76208419e-04     0.00000000e+00    
           1.61577109e-03     2.88228825e-04     0.00000000e+00    
           1.56216964e-04     6.98390475e-04     0.00000000e+00    
           1.35271388e-04     7.04858743e-04     0.00000000e+00    
           4.01289086e-04     3.13157536e-04     0.00000000e+00    
           3.80163983e-04     3.04176414e-04     0.00000000e+00    
           7.99341942e-04     6.63202256e-04     0.00000000e+00    
           7.79447320e-04     6.79120480e-04     0.00000000e+00    
           1.32505421e-03     8.28870514e-04     0.00000000e+00    
           1.30281923e-03     8.27673299e-04     0.00000000e+00    
           4.47343657e-04     7.74837681e-04     0.00000000e+00    
           4.26774757e-04     7.84082687e-04     0.00000000e+00    
           1.14313303e-03     5.40981186e-04     0.00000000e+00    
           1.11992727e-03     5.34052029e-04     0.00000000e+00    
           0.00000000e+00     1.50000001e-03     0.00000000e+00    
           0.00000000e+00     0.00000000e+00     0.00000000e+00    
           1.50000001e-03     0.00000000e+00     0.00000000e+00    
           1.50000001e-03     1.50000001e-03     0.00000000e+00    
           1.12877344e-03     1.01200712e-03     0.00000000e+00    
           1.12628064e-03     1.01396546e-03     0.00000000e+00    
           1.12325337e-03     1.01536594e-03     0.00000000e+00    
           1.12007337e-03     1.01593218e-03     0.00000000e+00    
           1.11692026e-03     1.01533567e-03     0.00000000e+00    
           1.11409323e-03     1.01393310e-03     0.00000000e+00    
           1.11212756e-03     1.01206300e-03     0.00000000e+00    
           1.11052743e-03     1.00992154e-03     0.00000000e+00    
           1.10900879e-03     1.00736553e-03     0.00000000e+00    
           1.10832567e-03     1.00402185e-03     0.00000000e+00    
           1.10848760e-03     1.00079423e-03     0.00000000e+00    
           1.11153373e-03     9.94845992e-04     0.00000000e+00    
           1.11427065e-03     9.92963905e-04     0.00000000e+00    
           1.11711328e-03     9.91680543e-04     0.00000000e+00    
           1.12039724e-03     9.91107547e-04     0.00000000e+00    
           1.12380064e-03     9.91721870e-04     0.00000000e+00    
           1.12716795e-03     9.93138761e-04     0.00000000e+00    
           1.12980313e-03     9.95510491e-04     0.00000000e+00    
           1.13133562e-03     9.98455100e-04     0.00000000e+00    
           1.13174610e-03     1.00104604e-03     0.00000000e+00    
           1.13156508e-03     1.00336480e-03     0.00000000e+00    
           1.13118498e-03     1.00584468e-03     0.00000000e+00    
           2.13317853e-05     1.00194046e-03     0.00000000e+00    
           2.43223694e-05     1.00258260e-03     0.00000000e+00    
           2.64744103e-05     1.00377447e-03     0.00000000e+00    
           2.84046182e-05     1.00530323e-03     0.00000000e+00    
           3.01766377e-05     1.00743701e-03     0.00000000e+00    
           3.13839882e-05     1.00995880e-03     0.00000000e+00    
           3.16961014e-05     1.01304601e-03     0.00000000e+00    
           3.01043729e-05     1.01824908e-03     0.00000000e+00    
           2.86062514e-05     1.02017971e-03     0.00000000e+00    
           2.65818071e-05     1.02195900e-03     0.00000000e+00    
           2.41770558e-05     1.02317694e-03     0.00000000e+00    
           2.14240881e-05     1.02371781e-03     0.00000000e+00    
           1.83030970e-05     1.02364749e-03     0.00000000e+00    
           1.55228627e-05     1.02221454e-03     0.00000000e+00    
           1.51243154e-03     1.01886783e-03     0.00000000e+00    
           1.51138322e-03     1.01692695e-03     0.00000000e+00    
           1.51032826e-03     1.01404381e-03     0.00000000e+00    
           1.51016575e-03     1.01096358e-03     0.00000000e+00    
           1.51137519e-03     1.00783538e-03     0.00000000e+00    
           1.51306519e-03     1.00567366e-03     0.00000000e+00    
           1.51468429e-03     1.00451370e-03     0.00000000e+00    
           1.51635869e-03     1.00364583e-03     0.00000000e+00    
           2.00468086e-04     1.46290800e-03     0.00000000e+00    
           1.99428381e-04     1.45980367e-03     0.00000000e+00    
           1.99148533e-04     1.45687652e-03     0.00000000e+00    
           1.99342816e-04     1.45388430e-03     0.00000000e+00    
           2.00327966e-04     1.45109813e-03     0.00000000e+00    
           2.02124967e-04     1.44845934e-03     0.00000000e+00    
           2.04696829e-04     1.44635851e-03     0.00000000e+00    
           2.10150756e-04     1.44465081e-03     0.00000000e+00    
           2.12517407e-04     1.44454592e-03     0.00000000e+00    
           2.15035179e-04     1.44479854e-03     0.00000000e+00    
           2.17842098e-04     1.44557655e-03     0.00000000e+00    
           2.20518777e-04     1.44775375e-03     0.00000000e+00    
           2.22375194e-04     1.45034690e-03     0.00000000e+00    
           2.23662544e-04     1.45324308e-03     0.00000000e+00    
           2.23451862e-04    -4.02102451e-05     0.00000000e+00    
           2.22294984e-04    -3.72022478e-05     0.00000000e+00    
           2.20467249e-04    -3.48340072e-05     0.00000000e+00    
           2.18094370e-04    -3.27962916e-05     0.00000000e+00    
           2.15579959e-04    -3.17894228e-05     0.00000000e+00    
           2.13243358e-04    -3.11798212e-05     0.00000000e+00    
           2.10838960e-04    -3.07943810e-05     0.00000000e+00    
           2.08167970e-04    -3.10720388e-05     0.00000000e+00    
           2.05078759e-04    -3.22315573e-05     0.00000000e+00    
           5.46630821e-04     1.40564062e-03     0.00000000e+00    
           5.45999908e-04     1.40280463e-03     0.00000000e+00    
           5.46154566e-04     1.40002556e-03     0.00000000e+00    
           5.46925643e-04     1.39704812e-03     0.00000000e+00    
           5.48901327e-04     1.39478571e-03     0.00000000e+00    
           5.50674798e-04     1.39359199e-03     0.00000000e+00    
           5.52498444e-04     1.39265636e-03     0.00000000e+00    
           5.54471742e-04     1.39183481e-03     0.00000000e+00    
           5.60576678e-04     1.39168336e-03     0.00000000e+00    
           5.63480717e-04     1.39327324e-03     0.00000000e+00    
           5.65691385e-04     1.39556092e-03     0.00000000e+00    
           5.67060371e-04     1.39794068e-03     0.00000000e+00    
           5.67517767e-04     1.40035502e-03     0.00000000e+00    
           5.67633484e-04     1.40265864e-03     0.00000000e+00    
           5.67272305e-04     1.40519463e-03     0.00000000e+00    
           5.66021597e-04     1.40767754e-03     0.00000000e+00    
           5.61615278e-04    -8.83713947e-05     0.00000000e+00    
           5.58653264e-04    -8.74291509e-05     0.00000000e+00    
           5.55608247e-04    -8.72305463e-05     0.00000000e+00    
           5.52614627e-04    -8.80619991e-05     0.00000000e+00    
           5.50189463e-04    -8.95984413e-05     0.00000000e+00    
           1.35772931e-03     2.11565100e-04     0.00000000e+00    
           1.35718414e-03     2.13493011e-04     0.00000000e+00    
           1.35622977e-03     2.15843014e-04     0.00000000e+00    
           1.35382719e-03     2.18223693e-04     0.00000000e+00    
           1.35068432e-03     2.19607202e-04     0.00000000e+00    
           1.34777324e-03     2.19878813e-04     0.00000000e+00    
           1.34537404e-03     2.19607580e-04     0.00000000e+00    
           1.34337891e-03     2.19001886e-04     0.00000000e+00    
           1.34167075e-03     2.18126312e-04     0.00000000e+00    
           1.33954082e-03     2.16589367e-04     0.00000000e+00    
           1.33782905e-03     2.14117215e-04     0.00000000e+00    
           1.33710355e-03     2.07769801e-04     0.00000000e+00    
           1.33819354e-03     2.04533048e-04     0.00000000e+00    
           1.34001090e-03     2.02025578e-04     0.00000000e+00    
           1.34227157e-03     2.00358525e-04     0.00000000e+00    
           1.34466367e-03     1.99487025e-04     0.00000000e+00    
           1.34690502e-03     1.99078873e-04     0.00000000e+00    
           1.34926976e-03     1.99027680e-04     0.00000000e+00    
           1.35193008e-03     1.99566959e-04     0.00000000e+00    
           1.35455886e-03     2.01190327e-04     0.00000000e+00    
           1.35662826e-03     2.03651187e-04     0.00000000e+00    
           1.35791791e-03     2.06438577e-04     0.00000000e+00    
           1.37014722e-03     1.30007078e-03     0.00000000e+00    
           1.36799272e-03     1.30193005e-03     0.00000000e+00    
           1.36538048e-03     1.30330608e-03     0.00000000e+00    
           1.36248954e-03     1.30375137e-03     0.00000000e+00    
           1.35949824e-03     1.30368397e-03     0.00000000e+00    
           1.35639892e-03     1.30269828e-03     0.00000000e+00    
           1.35385711e-03     1.30058767e-03     0.00000000e+00    
           1.35200552e-03     1.29814609e-03     0.00000000e+00    
           1.35091296e-03     1.29576668e-03     0.00000000e+00    
           1.34994229e-03     1.29063160e-03     0.00000000e+00    
           1.35056942e-03     1.28781702e-03     0.00000000e+00    
           1.35197164e-03     1.28499139e-03     0.00000000e+00    
           1.35418400e-03     1.28276960e-03     0.00000000e+00    
           1.35656504e-03     1.28122605e-03     0.00000000e+00    
           1.35978067e-03     1.28027785e-03     0.00000000e+00    
           1.36276498e-03     1.28030078e-03     0.00000000e+00    
           1.36529736e-03     1.28099148e-03     0.00000000e+00    
           1.36740145e-03     1.28199207e-03     0.00000000e+00    
          -1.28697604e-04     1.28526043e-03     0.00000000e+00    
          -1.27285137e-04     1.28770608e-03     0.00000000e+00    
          -1.26663464e-04     1.29039830e-03     0.00000000e+00    
          -1.26755476e-04     1.29320112e-03     0.00000000e+00    
          -1.27250867e-04     1.29551510e-03     0.00000000e+00    
           3.58053687e-04     1.16169406e-03     0.00000000e+00    
           3.57353187e-04     1.16465136e-03     0.00000000e+00    
           3.56205885e-04     1.16668292e-03     0.00000000e+00    
           3.55142285e-04     1.16845826e-03     0.00000000e+00    
           3.53492098e-04     1.17027655e-03     0.00000000e+00    
           3.50842805e-04     1.17198110e-03     0.00000000e+00    
           3.47832101e-04     1.17234711e-03     0.00000000e+00    
           3.45347624e-04     1.17224245e-03     0.00000000e+00    
           3.43025429e-04     1.17176853e-03     0.00000000e+00    
           3.40796250e-04     1.17096584e-03     0.00000000e+00    
           3.38125363e-04     1.16918713e-03     0.00000000e+00    
           3.36365978e-04     1.16626872e-03     0.00000000e+00    
           3.35142744e-04     1.16058730e-03     0.00000000e+00    
           3.35446763e-04     1.15793489e-03     0.00000000e+00    
           3.36344878e-04     1.15511660e-03     0.00000000e+00    
           3.38105136e-04     1.15266745e-03     0.00000000e+00    
           3.40494240e-04     1.15090050e-03     0.00000000e+00    
           3.43288848e-04     1.14985777e-03     0.00000000e+00    
           3.45587352e-04     1.14944507e-03     0.00000000e+00    
           3.47842783e-04     1.14930479e-03     0.00000000e+00    
           3.50459653e-04     1.14971783e-03     0.00000000e+00    
           3.52983974e-04     1.15098187e-03     0.00000000e+00    
           3.55327647e-04     1.15302345e-03     0.00000000e+00    
           3.57054989e-04     1.15565408e-03     0.00000000e+00    
           1.04889343e-03     1.32397306e-03     0.00000000e+00    
           1.04709680e-03     1.32643594e-03     0.00000000e+00    
           1.04459724e-03     1.32832932e-03     0.00000000e+00    
           1.04180980e-03     1.32932770e-03     0.00000000e+00    
           1.03881769e-03     1.32939464e-03     0.00000000e+00    
           1.03603338e-03     1.32875028e-03     0.00000000e+00    
           1.03337714e-03     1.32742163e-03     0.00000000e+00    
           1.03135384e-03     1.32527237e-03     0.00000000e+00    
           1.02995010e-03     1.32273056e-03     0.00000000e+00    
           1.02966651e-03     1.32003170e-03     0.00000000e+00    
           1.03072356e-03     1.31517136e-03     0.00000000e+00    
           1.03235629e-03     1.31263980e-03     0.00000000e+00    
           1.03486900e-03     1.31063303e-03     0.00000000e+00    
           1.03818835e-03     1.30921137e-03     0.00000000e+00    
           1.04148535e-03     1.30944396e-03     0.00000000e+00    
           1.04389235e-03     1.31033862e-03     0.00000000e+00    
           1.04602776e-03     1.31149392e-03     0.00000000e+00    
           1.04840251e-03     1.31345598e-03     0.00000000e+00    
           1.04960718e-03     1.31641224e-03     0.00000000e+00    
           1.04990543e-03     1.31910085e-03     0.00000000e+00    
           7.68908882e-04     4.62090044e-04     0.00000000e+00    
           7.67569989e-04     4.64086159e-04     0.00000000e+00    
           7.65702571e-04     4.66218218e-04     0.00000000e+00    
           7.62766576e-04     4.67414502e-04     0.00000000e+00    
           7.60287687e-04     4.67596721e-04     0.00000000e+00    
           7.58370385e-04     4.67364822e-04     0.00000000e+00    
           7.56243477e-04     4.66818688e-04     0.00000000e+00    
           7.53675064e-04     4.65950143e-04     0.00000000e+00    
           7.51030282e-04     4.63562959e-04     0.00000000e+00    
           7.49711355e-04     4.60542942e-04     0.00000000e+00    
           7.49289698e-04     4.57603513e-04     0.00000000e+00    
           7.50493957e-04     4.53267363e-04     0.00000000e+00    
           7.51507410e-04     4.51501983e-04     0.00000000e+00    
           7.52958411e-04     4.49749525e-04     0.00000000e+00    
           7.55083573e-04     4.48345876e-04     0.00000000e+00    
           7.57748843e-04     4.47360333e-04     0.00000000e+00    
           7.60788447e-04     4.47075232e-04     0.00000000e+00    
           7.63685850e-04     4.47923318e-04     0.00000000e+00    
           7.66267243e-04     4.49439773e-04     0.00000000e+00    
           7.68457307e-04     4.51820291e-04     0.00000000e+00    
           7.69744569e-04     4.54422930e-04     0.00000000e+00    
           7.70187005e-04     4.57314134e-04     0.00000000e+00    
           1.19809782e-04     2.74432619e-04     0.00000000e+00    
           1.22470854e-04     2.72875011e-04     0.00000000e+00    
           1.25500912e-04     2.72469624e-04     0.00000000e+00    
           1.28193802e-04     2.73090496e-04     0.00000000e+00    
           1.30315122e-04     2.73972430e-04     0.00000000e+00    
           1.32144429e-04     2.75196333e-04     0.00000000e+00    
           1.34328380e-04     2.77062325e-04     0.00000000e+00    
           1.35669223e-04     2.80177133e-04     0.00000000e+00    
           1.35897862e-04     2.82804482e-04     0.00000000e+00    
           1.35165421e-04     2.86814698e-04     0.00000000e+00    
           1.34239788e-04     2.89068208e-04     0.00000000e+00    
           1.32417947e-04     2.91466742e-04     0.00000000e+00    
           1.29913504e-04     2.93271674e-04     0.00000000e+00    
           1.27049076e-04     2.93889054e-04     0.00000000e+00    
           1.24633021e-04     2.93892896e-04     0.00000000e+00    
           1.22134894e-04     2.93494668e-04     0.00000000e+00    
           1.19789402e-04     2.92350887e-04     0.00000000e+00    
           1.17547184e-04     2.90598924e-04     0.00000000e+00    
           1.61475362e-03     2.85244401e-04     0.00000000e+00    
           1.61475223e-03     2.82092864e-04     0.00000000e+00    
           1.61558681e-03     2.79744883e-04     0.00000000e+00    
           1.61660323e-03     2.78052641e-04     0.00000000e+00    
           1.56620721e-04     7.00645789e-04     0.00000000e+00    
           1.56642229e-04     7.02992664e-04     0.00000000e+00    
           1.56048438e-04     7.05809740e-04     0.00000000e+00    
           1.54252455e-04     7.08499283e-04     0.00000000e+00    
           1.51601300e-04     7.10582302e-04     0.00000000e+00    
           1.48836916e-04     7.11809262e-04     0.00000000e+00    
           1.46158476e-04     7.12142268e-04     0.00000000e+00    
           1.43547411e-04     7.12122361e-04     0.00000000e+00    
           1.40712902e-04     7.11245404e-04     0.00000000e+00    
           1.38235147e-04     7.09666114e-04     0.00000000e+00    
           1.36509421e-04     7.07380415e-04     0.00000000e+00    
           1.34632632e-04     7.02060468e-04     0.00000000e+00    
           1.34748567e-04     6.98720047e-04     0.00000000e+00    
           1.36156421e-04     6.95664668e-04     0.00000000e+00    
           1.37947078e-04     6.93455455e-04     0.00000000e+00    
           1.40078468e-04     6.91699912e-04     0.00000000e+00    
           1.42418314e-04     6.90494257e-04     0.00000000e+00    
           1.45058992e-04     6.89752516e-04     0.00000000e+00    
           1.47921557e-04     6.89949899e-04     0.00000000e+00    
           1.50871565e-04     6.91008870e-04     0.00000000e+00    