<?xml version="1.0"?>
<VTKFile type="UnstructuredGrid" version="0.1">
  <UnstructuredGrid>
    <Piece NumberOfPoints="1034" NumberOfCells="1614">
      <Points>
        <DataArray type="Float32" NumberOfComponents="3">
           5.21582007e-01     5.11657000e-01     0.00000000e+00    
           5.07319987e-01     5.11657000e-01     0.00000000e+00    
           4.65243995e-01     5.17907977e-01     0.00000000e+00    
           4.65243995e-01     5.04921973e-01     0.00000000e+00    
           4.75246996e-01     5.11415005e-01     0.00000000e+00    
           5.33852994e-01     5.04921973e-01     0.00000000e+00    
           5.33852994e-01     5.17907977e-01     0.00000000e+00    
           4.83779997e-01     5.34618974e-01     0.00000000e+00    
           4.68984991e-01     5.34618974e-01     0.00000000e+00    
           4.76381987e-01     5.23841977e-01     0.00000000e+00    
           4.68984991e-01     4.66010004e-01     0.00000000e+00    
           4.83779997e-01     4.66010004e-01     0.00000000e+00    
           4.99920011e-01     5.34618974e-01     0.00000000e+00    
           4.89203990e-01     5.34618974e-01     0.00000000e+00    
           4.94562000e-01     5.22280991e-01     0.00000000e+00    
           4.89203990e-01     4.66010004e-01     0.00000000e+00    
           4.99920011e-01     4.66010004e-01     0.00000000e+00    
           5.32517016e-01     4.74112004e-01     0.00000000e+00    
           5.17961025e-01     4.74112004e-01     0.00000000e+00    
           5.33852994e-01     5.19801974e-01     0.00000000e+00    
           5.33852994e-01     5.29603004e-01     0.00000000e+00    
           5.19536972e-01     5.24702013e-01     0.00000000e+00    
           4.65243995e-01     5.29603004e-01     0.00000000e+00    
           4.65243995e-01     5.19801974e-01     0.00000000e+00    
           4.92487997e-01     5.17117977e-01     0.00000000e+00    
           4.76904988e-01     5.17117977e-01     0.00000000e+00    
           5.17996013e-01     5.27033985e-01     0.00000000e+00    
           5.04473984e-01     5.27033985e-01     0.00000000e+00    
           5.08446991e-01     4.83435005e-01     0.00000000e+00    
           4.94414002e-01     4.83435005e-01     0.00000000e+00    
           4.65243995e-01     4.83101994e-01     0.00000000e+00    
           4.65243995e-01     4.74415004e-01     0.00000000e+00    
           4.78336990e-01     4.78758007e-01     0.00000000e+00    
           5.33852994e-01     4.74415004e-01     0.00000000e+00    
           5.33852994e-01     4.83101994e-01     0.00000000e+00    
           4.80668008e-01     4.95810986e-01     0.00000000e+00    
           4.66084987e-01     4.95810986e-01     0.00000000e+00    
           4.93930012e-01     4.79214013e-01     0.00000000e+00    
           4.78967011e-01     4.79214013e-01     0.00000000e+00    
           5.09284973e-01     4.97658014e-01     0.00000000e+00    
           4.95503992e-01     4.97658014e-01     0.00000000e+00    
           5.33011973e-01     5.01751006e-01     0.00000000e+00    
           5.17829001e-01     5.01751006e-01     0.00000000e+00    
           4.95451003e-01     5.00564992e-01     0.00000000e+00    
           4.80922014e-01     5.00564992e-01     0.00000000e+00    
           5.25367022e-01     4.88312006e-01     0.00000000e+00    
           5.09521008e-01     4.88312006e-01     0.00000000e+00    
           4.65243995e-01     5.34618974e-01     0.00000000e+00    
           4.65243995e-01     4.66010004e-01     0.00000000e+00    
           5.33852994e-01     4.66010004e-01     0.00000000e+00    
           5.33852994e-01     5.34618974e-01     0.00000000e+00    
           5.21338999e-01     5.13502657e-01     0.00000000e+00    
           5.20626605e-01     5.15222490e-01     0.00000000e+00    
           5.19493401e-01     5.16699374e-01     0.00000000e+00    
           5.18016517e-01     5.17832637e-01     0.00000000e+00    
           5.16296625e-01     5.18545032e-01     0.00000000e+00    
           5.14451027e-01     5.18787980e-01     0.00000000e+00    
           5.12605369e-01     5.18545032e-01     0.00000000e+00    
           5.10885477e-01     5.17832637e-01     0.00000000e+00    
           5.09408593e-01     5.16699374e-01     0.00000000e+00    
           5.08275390e-01     5.15222490e-01     0.00000000e+00    
           5.07562995e-01     5.13502657e-01     0.00000000e+00    
           5.07562995e-01     5.09811342e-01     0.00000000e+00    
           5.08275390e-01     5.08091509e-01     0.00000000e+00    
           5.09408593e-01     5.06614625e-01     0.00000000e+00    
           5.10885477e-01     5.05481362e-01     0.00000000e+00    
           5.12605369e-01     5.04768968e-01     0.00000000e+00    
           5.14451027e-01     5.04526019e-01     0.00000000e+00    
           5.16296625e-01     5.04768968e-01     0.00000000e+00    
           5.18016517e-01     5.05481362e-01     0.00000000e+00    
           5.19493401e-01     5.06614625e-01     0.00000000e+00    
           5.20626605e-01     5.08091509e-01     0.00000000e+00    
           5.21338999e-01     5.09811342e-01     0.00000000e+00    
           4.66931671e-01     5.04409373e-01     0.00000000e+00    
           4.68693614e-01     5.04328012e-01     0.00000000e+00    
           4.70421344e-01     5.04682958e-01     0.00000000e+00    
           4.72008497e-01     5.05452335e-01     0.00000000e+00    
           4.73357379e-01     5.06588817e-01     0.00000000e+00    
           4.74384934e-01     5.08022368e-01     0.00000000e+00    
           4.75027919e-01     5.09664834e-01     0.00000000e+00    
           4.75028187e-01     5.13165236e-01     0.00000000e+00    
           4.74385172e-01     5.14807761e-01     0.00000000e+00    
           4.73357558e-01     5.16241372e-01     0.00000000e+00    
           4.72008646e-01     5.17377913e-01     0.00000000e+00    
           4.70421433e-01     5.18147290e-01     0.00000000e+00    
           4.68693614e-01     5.18502235e-01     0.00000000e+00    
           4.66931641e-01     5.18420875e-01     0.00000000e+00    
           5.32303810e-01     5.16964078e-01     0.00000000e+00    
           5.31043947e-01     5.15658796e-01     0.00000000e+00    
           5.30155540e-01     5.14077127e-01     0.00000000e+00    
           5.29696345e-01     5.12322068e-01     0.00000000e+00    
           5.29696345e-01     5.10507941e-01     0.00000000e+00    
           5.30155540e-01     5.08752882e-01     0.00000000e+00    
           5.31043947e-01     5.07171214e-01     0.00000000e+00    
           5.32303810e-01     5.05865932e-01     0.00000000e+00    
           4.68517244e-01     5.32760799e-01     0.00000000e+00    
           4.68509018e-01     5.30844629e-01     0.00000000e+00    
           4.68960851e-01     5.28982460e-01     0.00000000e+00    
           4.69846308e-01     5.27283132e-01     0.00000000e+00    
           4.71113682e-01     5.25845945e-01     0.00000000e+00    
           4.72688884e-01     5.24754822e-01     0.00000000e+00    
           4.74479854e-01     5.24073541e-01     0.00000000e+00    
           4.78284091e-01     5.24073601e-01     0.00000000e+00    
           4.80075032e-01     5.24754822e-01     0.00000000e+00    
           4.81650203e-01     5.25845885e-01     0.00000000e+00    
           4.82917547e-01     5.27283013e-01     0.00000000e+00    
           4.83803004e-01     5.28982282e-01     0.00000000e+00    
           4.84254897e-01     5.30844331e-01     0.00000000e+00    
           4.84246761e-01     5.32760441e-01     0.00000000e+00    
           4.82887864e-01     4.67691004e-01     0.00000000e+00    
           4.81620818e-01     4.69110936e-01     0.00000000e+00    
           4.80051905e-01     4.70188022e-01     0.00000000e+00    
           4.78271484e-01     4.70860153e-01     0.00000000e+00    
           4.76382166e-01     4.71088618e-01     0.00000000e+00    
           4.74492878e-01     4.70860243e-01     0.00000000e+00    
           4.72712427e-01     4.70188200e-01     0.00000000e+00    
           4.71143454e-01     4.69111174e-01     0.00000000e+00    
           4.69876349e-01     4.67691302e-01     0.00000000e+00    
           4.88103986e-01     5.33086061e-01     0.00000000e+00    
           4.87431526e-01     5.31323195e-01     0.00000000e+00    
           4.87231195e-01     5.29447019e-01     0.00000000e+00    
           4.87516224e-01     5.27581930e-01     0.00000000e+00    
           4.88267750e-01     5.25851250e-01     0.00000000e+00    
           4.89436030e-01     5.24369657e-01     0.00000000e+00    
           4.90943670e-01     5.23235261e-01     0.00000000e+00    
           4.92690891e-01     5.22523046e-01     0.00000000e+00    
           4.96432930e-01     5.22523701e-01     0.00000000e+00    
           4.98180002e-01     5.23235798e-01     0.00000000e+00    
           4.99687493e-01     5.24370134e-01     0.00000000e+00    
           5.00855684e-01     5.25851607e-01     0.00000000e+00    
           5.01607120e-01     5.27582109e-01     0.00000000e+00    
           5.01892149e-01     5.29447079e-01     0.00000000e+00    
           5.01691818e-01     5.31323016e-01     0.00000000e+00    
           5.01019418e-01     5.33085763e-01     0.00000000e+00    
           4.98371124e-01     4.67269689e-01     0.00000000e+00    
           4.96539861e-01     4.68064904e-01     0.00000000e+00    
           4.94562000e-01     4.68336672e-01     0.00000000e+00    
           4.92584139e-01     4.68064904e-01     0.00000000e+00    
           4.90752876e-01     4.67269689e-01     0.00000000e+00    
           5.32269001e-01     4.75995690e-01     0.00000000e+00    
           5.31541944e-01     4.77750987e-01     0.00000000e+00    
           5.30385315e-01     4.79258329e-01     0.00000000e+00    
           5.28877974e-01     4.80414927e-01     0.00000000e+00    
[...]
      <PointData>
        <DataArray type="Float32" Name="Displacement" NumberOfComponents="3">
           5.47127042e-04     4.70703177e-04     0.00000000e+00    
           5.31377329e-04     4.65550722e-04     0.00000000e+00    
          -1.34596721e-05     4.88572405e-04     0.00000000e+00    
          -1.09710072e-05     4.70865896e-04     0.00000000e+00    
           1.10536996e-06     4.84155316e-04     0.00000000e+00    
           6.89028995e-04     4.70865896e-04     0.00000000e+00    
           6.86540327e-04     4.88572405e-04     0.00000000e+00    
           1.10826353e-04     6.84652943e-04     0.00000000e+00    
           9.40301688e-05     6.95637311e-04     0.00000000e+00    
           9.49268360e-05     6.76417083e-04     0.00000000e+00    
           9.40301688e-05    -4.36271466e-06     0.00000000e+00    
           1.10826353e-04    -1.53470501e-05     0.00000000e+00    
           2.58867571e-04     6.46071800e-04     0.00000000e+00    
           2.44736642e-04     6.55966753e-04     0.00000000e+00    
           2.39760499e-04     6.37812773e-04     0.00000000e+00    
           2.44736642e-04    -4.40332515e-05     0.00000000e+00    
           2.58867571e-04    -5.39282119e-05     0.00000000e+00    
           6.51813811e-04     1.11260619e-04     0.00000000e+00    
           6.34089345e-04     1.17154981e-04     0.00000000e+00    
           6.42485335e-04     6.00148924e-04     0.00000000e+00    
           6.45361550e-04     6.13648037e-04     0.00000000e+00    
           6.25429500e-04     6.09619077e-04     0.00000000e+00    
          -5.46384363e-05     6.13648037e-04     0.00000000e+00    
          -5.75146732e-05     6.00148924e-04     0.00000000e+00    
           1.54019712e-04     5.58084226e-04     0.00000000e+00    
           1.36518633e-04     5.65554015e-04     0.00000000e+00    
           5.05898788e-04     6.09578798e-04     0.00000000e+00    
           4.86943725e-04     5.97903447e-04     0.00000000e+00    
           3.52852687e-04     2.37388071e-04     0.00000000e+00    
           3.33733275e-04     2.27034092e-04     0.00000000e+00    
           6.44210158e-05     1.36976378e-04     0.00000000e+00    
           6.19463026e-05     1.27282503e-04     0.00000000e+00    
           8.07850520e-05     1.30104410e-04     0.00000000e+00    
           7.61946314e-04     1.27282503e-04     0.00000000e+00    
           7.64421013e-04     1.36976378e-04     0.00000000e+00    
           7.43381752e-05     3.52142000e-04     0.00000000e+00    
           5.60306253e-05     3.43322317e-04     0.00000000e+00    
           1.88411999e-04     1.57005954e-04     0.00000000e+00    
           1.67779712e-04     1.39966360e-04     0.00000000e+00    
           3.61450599e-04     3.04826652e-04     0.00000000e+00    
           3.42707761e-04     3.21183790e-04     0.00000000e+00    
           6.19545404e-04     4.00978606e-04     0.00000000e+00    
           5.99831925e-04     3.99836572e-04     0.00000000e+00    
           2.00657261e-04     3.75210424e-04     0.00000000e+00    
           1.80908813e-04     3.86824016e-04     0.00000000e+00    
           5.31428959e-04     2.71932251e-04     0.00000000e+00    
           5.10765472e-04     2.60401837e-04     0.00000000e+00    
           0.00000000e+00     6.99999975e-04     0.00000000e+00    
           0.00000000e+00     0.00000000e+00     0.00000000e+00    
           6.99999975e-04     0.00000000e+00     0.00000000e+00    
           6.99999975e-04     6.99999975e-04     0.00000000e+00    
           5.45852759e-04     4.74046625e-04     0.00000000e+00    
           5.44582959e-04     4.76271292e-04     0.00000000e+00    
           5.42902271e-04     4.77888010e-04     0.00000000e+00    
           5.40837122e-04     4.78713191e-04     0.00000000e+00    
           5.38422726e-04     4.79094218e-04     0.00000000e+00    
           5.36053616e-04     4.78671835e-04     0.00000000e+00    
           5.34649997e-04     4.77554422e-04     0.00000000e+00    
           5.33517567e-04     4.75877605e-04     0.00000000e+00    
           5.32295089e-04     4.73494525e-04     0.00000000e+00    
           5.31391532e-04     4.70707979e-04     0.00000000e+00    
           5.31135767e-04     4.68082406e-04     0.00000000e+00    
           5.32053644e-04     4.63038450e-04     0.00000000e+00    
           5.33251325e-04     4.61178774e-04     0.00000000e+00    
           5.34770021e-04     4.59978561e-04     0.00000000e+00    
           5.36513398e-04     4.59444243e-04     0.00000000e+00    
           5.38848573e-04     4.59337578e-04     0.00000000e+00    
           5.41873509e-04     4.59756557e-04     0.00000000e+00    
           5.44966257e-04     4.60687152e-04     0.00000000e+00    
           5.47224656e-04     4.61969059e-04     0.00000000e+00    
           5.48141485e-04     4.63597069e-04     0.00000000e+00    
           5.48369018e-04     4.65457415e-04     0.00000000e+00    
           5.47815114e-04     4.67671256e-04     0.00000000e+00    
          -7.64559536e-06     4.70056548e-04     0.00000000e+00    
          -4.65419635e-06     4.70707135e-04     0.00000000e+00    
          -2.94074698e-06     4.71779000e-04     0.00000000e+00    
          -1.46391130e-06     4.73376160e-04     0.00000000e+00    
          -2.11238643e-07     4.75864072e-04     0.00000000e+00    
           7.35065669e-07     4.78621048e-04     0.00000000e+00    
           1.14880299e-06     4.81636904e-04     0.00000000e+00    
           4.24119435e-07     4.85956785e-04     0.00000000e+00    
          -6.06489152e-07     4.87178244e-04     0.00000000e+00    
          -2.26552515e-06     4.88351798e-04     0.00000000e+00    
          -4.45617570e-06     4.89198137e-04     0.00000000e+00    
          -6.79437107e-06     4.89711354e-04     0.00000000e+00    
          -9.49947480e-06     4.89865371e-04     0.00000000e+00    
          -1.19410979e-05     4.89305414e-04     0.00000000e+00    
           6.85695733e-04     4.87283076e-04     0.00000000e+00    
           6.85335021e-04     4.85687779e-04     0.00000000e+00    
           6.84842526e-04     4.82693547e-04     0.00000000e+00    
           6.84608531e-04     4.79532318e-04     0.00000000e+00    
           6.84827450e-04     4.76210931e-04     0.00000000e+00    
           6.85331528e-04     4.73907829e-04     0.00000000e+00    
           6.86076819e-04     4.72654996e-04     0.00000000e+00    
           6.87339751e-04     4.71644918e-04     0.00000000e+00    
           9.16091449e-05     6.92984264e-04     0.00000000e+00    
           8.99281586e-05     6.90355431e-04     0.00000000e+00    
           8.88529248e-05     6.88158209e-04     0.00000000e+00    
           8.84560359e-05     6.85818552e-04     0.00000000e+00    
           8.89837756e-05     6.83276565e-04     0.00000000e+00    
           9.04120825e-05     6.80719910e-04     0.00000000e+00    
           9.25162458e-05     6.78380602e-04     0.00000000e+00    
           9.76948504e-05     6.74796931e-04     0.00000000e+00    
           9.98247051e-05     6.73906761e-04     0.00000000e+00    
           1.02087666e-04     6.73739240e-04     0.00000000e+00    
           1.04657265e-04     6.74420153e-04     0.00000000e+00    
           1.07353124e-04     6.76544383e-04     0.00000000e+00    
           1.09275228e-04     6.78837823e-04     0.00000000e+00    
           1.10483976e-04     6.81321428e-04     0.00000000e+00    
           1.10709349e-04    -1.20367358e-05     0.00000000e+00    
           1.10214205e-04    -8.86683483e-06     0.00000000e+00    
           1.09240420e-04    -6.24213817e-06     0.00000000e+00    
           1.07426764e-04    -3.92821266e-06     0.00000000e+00    
           1.05326966e-04    -2.25621625e-06     0.00000000e+00    
           1.03419705e-04    -1.09111045e-06     0.00000000e+00    
           1.01506615e-04    -4.95885047e-07     0.00000000e+00    
           9.92791320e-05    -8.34727075e-07     0.00000000e+00    
           9.64920546e-05    -2.31010858e-06     0.00000000e+00    
           2.41641494e-04     6.54769014e-04     0.00000000e+00    
           2.38976456e-04     6.53070514e-04     0.00000000e+00    
           2.36998691e-04     6.50983595e-04     0.00000000e+00    
           2.35690604e-04     6.48017623e-04     0.00000000e+00    
           2.35208936e-04     6.44847110e-04     0.00000000e+00    
           2.35149972e-04     6.42636151e-04     0.00000000e+00    
           2.35710293e-04     6.40644983e-04     0.00000000e+00    
           2.36875087e-04     6.39002305e-04     0.00000000e+00    
           2.43236063e-04     6.36856013e-04     0.00000000e+00    
           2.46843061e-04     6.36464974e-04     0.00000000e+00    
           2.50285608e-04     6.36683428e-04     0.00000000e+00    
           2.53124628e-04     6.37154444e-04     0.00000000e+00    
           2.55277468e-04     6.37535704e-04     0.00000000e+00    
           2.57256354e-04     6.38402882e-04     0.00000000e+00    
           2.58648884e-04     6.40020007e-04     0.00000000e+00    
           2.59228458e-04     6.42757688e-04     0.00000000e+00    
           2.57644249e-04    -5.07560435e-05     0.00000000e+00    
           2.55772233e-04    -4.79858427e-05     0.00000000e+00    
           2.53448001e-04    -4.57924980e-05     0.00000000e+00    
           2.50703830e-04    -4.43417593e-05     0.00000000e+00    
           2.47905991e-04    -4.37053423e-05     0.00000000e+00    
           6.52363291e-04     1.13193171e-04     0.00000000e+00    
           6.52273593e-04     1.14899805e-04     0.00000000e+00    
           6.51477487e-04     1.16721378e-04     0.00000000e+00    
           6.48778223e-04     1.19228098e-04     0.00000000e+00    
           6.45623251e-04     1.21326862e-04     0.00000000e+00    
           6.42920437e-04     1.22442594e-04     0.00000000e+00    
           6.41119783e-04     1.23520251e-04     0.00000000e+00    
           6.39462669e-04     1.23843900e-04     0.00000000e+00    
           6.38099213e-04     1.23658043e-04     0.00000000e+00    
           6.36385055e-04     1.22534679e-04     0.00000000e+00    
           6.34928001e-04     1.20260251e-04     0.00000000e+00    
           6.33669901e-04     1.14268769e-04     0.00000000e+00    
           6.33972522e-04     1.11148671e-04     0.00000000e+00    
           6.34808152e-04     1.08475921e-04     0.00000000e+00    
           6.36097742e-04     1.06193715e-04     0.00000000e+00    
           6.37729187e-04     1.04512706e-04     0.00000000e+00    
           6.39280595e-04     1.03394661e-04     0.00000000e+00    
           6.40973507e-04     1.02787963e-04     0.00000000e+00    
           6.43047679e-04     1.02952683e-04     0.00000000e+00    
           6.45635359e-04     1.04225299e-04     0.00000000e+00    
           6.48100569e-04     1.06318708e-04     0.00000000e+00    
           6.50333124e-04     1.08777502e-04     0.00000000e+00    
           6.43666484e-04     6.15680590e-04     0.00000000e+00    
           6.41417282e-04     6.17504353e-04     0.00000000e+00    
           6.38997881e-04     6.18968275e-04     0.00000000e+00    
           6.36962650e-04     6.19396218e-04     0.00000000e+00    
           6.35036151e-04     6.19243190e-04     0.00000000e+00    
           6.32478856e-04     6.18232822e-04     0.00000000e+00    
           6.29720045e-04     6.15888508e-04     0.00000000e+00    
           6.27437083e-04     6.13554614e-04     0.00000000e+00    
           6.26032066e-04     6.11524214e-04     0.00000000e+00    
           6.25604356e-04     6.07194670e-04     0.00000000e+00    
           6.26487599e-04     6.04587025e-04     0.00000000e+00    
           6.27855421e-04     6.02433283e-04     0.00000000e+00    
           6.29708637e-04     6.01009931e-04     0.00000000e+00    
           6.31877221e-04     5.99965977e-04     0.00000000e+00    
           6.34794240e-04     5.99076913e-04     0.00000000e+00    
           6.37583958e-04     5.98616258e-04     0.00000000e+00    
           6.39575534e-04     5.98268060e-04     0.00000000e+00    
           6.41198480e-04     5.98886982e-04     0.00000000e+00    
          -5.60965782e-05     6.02279790e-04     0.00000000e+00    
          -5.49319702e-05     6.05018635e-04     0.00000000e+00    
          -5.40377587e-05     6.07691647e-04     0.00000000e+00    
          -5.37821179e-05     6.10125309e-04     0.00000000e+00    
          -5.39213106e-05     6.11876661e-04     0.00000000e+00    
           1.55082802e-04     5.61096065e-04     0.00000000e+00    
           1.55696878e-04     5.64520713e-04     0.00000000e+00    
           1.55983522e-04     5.66792965e-04     0.00000000e+00    
           1.55760543e-04     5.68901189e-04     0.00000000e+00    
           1.54668873e-04     5.70885371e-04     0.00000000e+00    
           1.52065331e-04     5.72666875e-04     0.00000000e+00    
           1.48987761e-04     5.73826546e-04     0.00000000e+00    
           1.46491875e-04     5.74348553e-04     0.00000000e+00    
           1.44318328e-04     5.74209436e-04     0.00000000e+00    
           1.42476696e-04     5.73499361e-04     0.00000000e+00    
           1.40077944e-04     5.71405108e-04     0.00000000e+00    
           1.38122588e-04     5.68227493e-04     0.00000000e+00    
           1.35578710e-04     5.62977686e-04     0.00000000e+00    
           1.35337788e-04     5.60852175e-04     0.00000000e+00    
           1.35925991e-04     5.58624684e-04     0.00000000e+00    
           1.37546318e-04     5.56168961e-04     0.00000000e+00    
           1.39589261e-04     5.53992926e-04     0.00000000e+00    
           1.41798941e-04     5.52311656e-04     0.00000000e+00    
           1.43242112e-04     5.51255129e-04     0.00000000e+00    
           1.44567573e-04     5.50588302e-04     0.00000000e+00    
           1.46432285e-04     5.50644239e-04     0.00000000e+00    
           1.48574021e-04     5.51688601e-04     0.00000000e+00    
           1.50704902e-04     5.53423830e-04     0.00000000e+00    
           1.52568828e-04     5.55560866e-04     0.00000000e+00    
           5.03508199e-04     6.11269323e-04     0.00000000e+00    
           5.00326336e-04     6.12855947e-04     0.00000000e+00    
           4.96933877e-04     6.13446115e-04     0.00000000e+00    
           4.93622036e-04     6.12984993e-04     0.00000000e+00    
           4.90385632e-04     6.11656520e-04     0.00000000e+00    
           4.87602199e-04     6.09642710e-04     0.00000000e+00    
           4.85422031e-04     6.07076334e-04     0.00000000e+00    
           4.84196178e-04     6.04155648e-04     0.00000000e+00    
           4.83959302e-04     6.01390959e-04     0.00000000e+00    
           4.85063938e-04     5.99329302e-04     0.00000000e+00    
           4.89301514e-04     5.96950646e-04     0.00000000e+00    
           4.92171443e-04     5.95609308e-04     0.00000000e+00    
           4.95725602e-04     5.94624784e-04     0.00000000e+00    
           4.99605318e-04     5.93948120e-04     0.00000000e+00    
           5.02838171e-04     5.94376179e-04     0.00000000e+00    
           5.04838419e-04     5.95726073e-04     0.00000000e+00    
           5.06219920e-04     5.97781676e-04     0.00000000e+00    
           5.07663004e-04     6.00904343e-04     0.00000000e+00    
           5.08129189e-04     6.04645640e-04     0.00000000e+00    
           5.07589837e-04     6.07552181e-04     0.00000000e+00    
           3.51992145e-04     2.38970984e-04     0.00000000e+00    
           3.50496004e-04     2.40081688e-04     0.00000000e+00    
           3.48380301e-04     2.41361660e-04     0.00000000e+00    
           3.45112610e-04     2.42466776e-04     0.00000000e+00    
           3.42561019e-04     2.42677648e-04     0.00000000e+00    
           3.40637373e-04     2.41905960e-04     0.00000000e+00    
           3.38738086e-04     2.40324283e-04     0.00000000e+00    
           3.36619501e-04     2.37830041e-04     0.00000000e+00    
           3.34628276e-04     2.34859515e-04     0.00000000e+00    
           3.33585718e-04     2.31636601e-04     0.00000000e+00    
           3.33265256e-04     2.28857651e-04     0.00000000e+00    
           3.34504031e-04     2.26021337e-04     0.00000000e+00    
           3.35749297e-04     2.25156065e-04     0.00000000e+00    
           3.37473408e-04     2.24453572e-04     0.00000000e+00    
           3.39933496e-04     2.23961906e-04     0.00000000e+00    
           3.42725049e-04     2.23922645e-04     0.00000000e+00    
           3.45445093e-04     2.24558520e-04     0.00000000e+00    
           3.47875466e-04     2.25927361e-04     0.00000000e+00    
           3.49929294e-04     2.27813201e-04     0.00000000e+00    
           3.51633236e-04     2.30272271e-04     0.00000000e+00    
           3.52682371e-04     2.32857332e-04     0.00000000e+00    
           3.53101874e-04     2.35471220e-04     0.00000000e+00    
           6.36856857e-05     1.25663151e-04     0.00000000e+00    
           6.62035527e-05     1.23728634e-04     0.00000000e+00    
           6.88290165e-05     1.22256257e-04     0.00000000e+00    
           7.10117965e-05     1.21430021e-04     0.00000000e+00    
           7.28949744e-05     1.21215693e-04     0.00000000e+00    
           7.46237929e-05     1.21629979e-04     0.00000000e+00    
           7.68887912e-05     1.23166421e-04     0.00000000e+00    
           7.89645856e-05     1.26085346e-04     0.00000000e+00    
           8.02767609e-05     1.28313477e-04     0.00000000e+00    
           8.06718017e-05     1.32027679e-04     0.00000000e+00    
           7.95332089e-05     1.34341230e-04     0.00000000e+00    
           7.75336011e-05     1.36949762e-04     0.00000000e+00    
           7.53552813e-05     1.39058786e-04     0.00000000e+00    
           7.37258742e-05     1.40114833e-04     0.00000000e+00    
           7.23894045e-05     1.40642835e-04     0.00000000e+00    
           7.07338768e-05     1.40659395e-04     0.00000000e+00    
           6.87495558e-05     1.40046541e-04     0.00000000e+00    
           6.65180778e-05     1.38770498e-04     0.00000000e+00    
           7.62724259e-04     1.34628819e-04     0.00000000e+00    
           7.61391479e-04     1.31968525e-04     0.00000000e+00    
           7.61042640e-04     1.30192231e-04     0.00000000e+00    
           7.61247240e-04     1.28722430e-04     0.00000000e+00    
           7.31856489e-05     3.53616662e-04     0.00000000e+00    
           7.14122943e-05     3.54618358e-04     0.00000000e+00    
           6.90025045e-05     3.55584896e-04     0.00000000e+00    
           6.56491829e-05     3.56353412e-04     0.00000000e+00    
           6.21686049e-05     3.56682576e-04     0.00000000e+00    
           5.92430551e-05     3.56296543e-04     0.00000000e+00    
           5.73111902e-05     3.55240394e-04     0.00000000e+00    
           5.58614556e-05     3.53692798e-04     0.00000000e+00    
           5.45605071e-05     3.51179042e-04     0.00000000e+00    
           5.40686669e-05     3.48399539e-04     0.00000000e+00    
           5.46815681e-05     3.45808134e-04     0.00000000e+00    
           5.81045424e-05     3.40840052e-04     0.00000000e+00    
           6.05816640e-05     3.38428334e-04     0.00000000e+00    
           6.34274547e-05     3.36602563e-04     0.00000000e+00    
           6.59534926e-05     3.35887598e-04     0.00000000e+00    
           6.79114673e-05     3.36055818e-04     0.00000000e+00    
           6.94839400e-05     3.36813187e-04     0.00000000e+00    
           7.08378720e-05     3.38146725e-04     0.00000000e+00    
           7.23593403e-05     3.40229162e-04     0.00000000e+00    
           7.35597423e-05     3.42912652e-04     0.00000000e+00    