<?xml version="1.0"?>
<VTKFile type="UnstructuredGrid" version="0.1">
  <UnstructuredGrid>
    <Piece NumberOfPoints="1034" NumberOfCells="1614">
      <Points>
        <DataArray type="Float32" NumberOfComponents="3">
           5.21582007e-01     5.11657000e-01     0.00000000e+00    
           5.07319987e-01     5.11657000e-01     0.00000000e+00    
           4.65243995e-01     5.17907977e-01     0.00000000e+00    
           4.65243995e-01     5.04921973e-01     0.00000000e+00    
           4.75246996e-01     5.11415005e-01     0.00000000e+00    
           5.33852994e-01     5.04921973e-01     0.00000000e+00    
           5.33852994e-01     5.17907977e-01     0.00000000e+00    
           4.83779997e-01     5.34618974e-01     0.00000000e+00    
           4.68984991e-01     5.34618974e-01     0.00000000e+00    
           4.76381987e-01     5.23841977e-01     0.00000000e+00    
           4.68984991e-01     4.66010004e-01     0.00000000e+00    
           4.83779997e-01     4.66010004e-01     0.00000000e+00    
           4.99920011e-01     5.34618974e-01     0.00000000e+00    
           4.89203990e-01     5.34618974e-01     0.00000000e+00    
           4.94562000e-01     5.22280991e-01     0.00000000e+00    
           4.89203990e-01     4.66010004e-01     0.00000000e+00    
           4.99920011e-01     4.66010004e-01     0.00000000e+00    
           5.32517016e-01     4.74112004e-01     0.00000000e+00    
           5.17961025e-01     4.74112004e-01     0.00000000e+00    
           5.33852994e-01     5.19801974e-01     0.00000000e+00    
           5.33852994e-01     5.29603004e-01     0.00000000e+00    
           5.19536972e-01     5.24702013e-01     0.00000000e+00    
           4.65243995e-01     5.29603004e-01     0.00000000e+00    
           4.65243995e-01     5.19801974e-01     0.00000000e+00    
           4.92487997e-01     5.17117977e-01     0.00000000e+00    
           4.76904988e-01     5.17117977e-01     0.00000000e+00    
           5.17996013e-01     5.27033985e-01     0.00000000e+00    
           5.04473984e-01     5.27033985e-01     0.00000000e+00    
           5.08446991e-01     4.83435005e-01     0.00000000e+00    
           4.94414002e-01     4.83435005e-01     0.00000000e+00    
           4.65243995e-01     4.83101994e-01     0.00000000e+00    
           4.65243995e-01     4.74415004e-01     0.00000000e+00    
           4.78336990e-01     4.78758007e-01     0.00000000e+00    
           5.33852994e-01     4.74415004e-01     0.00000000e+00    
           5.33852994e-01     4.83101994e-01     0.00000000e+00    
           4.80668008e-01     4.95810986e-01     0.00000000e+00    
           4.66084987e-01     4.95810986e-01     0.00000000e+00    
           4.93930012e-01     4.79214013e-01     0.00000000e+00    
           4.78967011e-01     4.79214013e-01     0.00000000e+00    
           5.09284973e-01     4.97658014e-01     0.00000000e+00    
           4.95503992e-01     4.97658014e-01     0.00000000e+00    
           5.33011973e-01     5.01751006e-01     0.00000000e+00    
           5.17829001e-01     5.01751006e-01     0.00000000e+00    
           4.95451003e-01     5.00564992e-01     0.00000000e+00    
           4.80922014e-01     5.00564992e-01     0.00000000e+00    
           5.25367022e-01     4.88312006e-01     0.00000000e+00    
           5.09521008e-01     4.88312006e-01     0.00000000e+00    
           4.65243995e-01     5.34618974e-01     0.00000000e+00    
           4.65243995e-01     4.66010004e-01     0.00000000e+00    
           5.33852994e-01     4.66010004e-01     0.00000000e+00    
           5.33852994e-01     5.34618974e-01     0.00000000e+00    
           5.21338999e-01     5.13502657e-01     0.00000000e+00    
           5.20626605e-01     5.15222490e-01     0.00000000e+00    
           5.19493401e-01     5.16699374e-01     0.00000000e+00    
           5.18016517e-01     5.17832637e-01     0.00000000e+00    
           5.16296625e-01     5.18545032e-01     0.00000000e+00    
           5.14451027e-01     5.18787980e-01     0.00000000e+00    
           5.12605369e-01     5.18545032e-01     0.00000000e+00    
           5.10885477e-01     5.17832637e-01     0.00000000e+00    
           5.09408593e-01     5.16699374e-01     0.00000000e+00    
           5.08275390e-01     5.15222490e-01     0.00000000e+00    
           5.07562995e-01     5.13502657e-01     0.00000000e+00    
           5.07562995e-01     5.09811342e-01     0.00000000e+00    
           5.08275390e-01     5.08091509e-01     0.00000000e+00    
           5.09408593e-01     5.06614625e-01     0.00000000e+00    
           5.10885477e-01     5.05481362e-01     0.00000000e+00    
           5.12605369e-01     5.04768968e-01     0.00000000e+00    
           5.14451027e-01     5.04526019e-01     0.00000000e+00    
           5.16296625e-01     5.04768968e-01     0.00000000e+00    
           5.18016517e-01     5.05481362e-01     0.00000000e+00    
           5.19493401e-01     5.06614625e-01     0.00000000e+00    
           5.20626605e-01     5.08091509e-01     0.00000000e+00    
           5.21338999e-01     5.09811342e-01     0.00000000e+00    
           4.66931671e-01     5.04409373e-01     0.00000000e+00    
           4.68693614e-01     5.04328012e-01     0.00000000e+00    
           4.70421344e-01     5.04682958e-01     0.00000000e+00    
           4.72008497e-01     5.05452335e-01     0.00000000e+00    
           4.73357379e-01     5.06588817e-01     0.00000000e+00    
           4.74384934e-01     5.08022368e-01     0.00000000e+00    
           4.75027919e-01     5.09664834e-01     0.00000000e+00    
           4.75028187e-01     5.13165236e-01     0.00000000e+00    
           4.74385172e-01     5.14807761e-01     0.00000000e+00    
           4.73357558e-01     5.16241372e-01     0.00000000e+00    
           4.72008646e-01     5.17377913e-01     0.00000000e+00    
           4.70421433e-01     5.18147290e-01     0.00000000e+00    
           4.68693614e-01     5.18502235e-01     0.00000000e+00    
           4.66931641e-01     5.18420875e-01     0.00000000e+00    
           5.32303810e-01     5.16964078e-01     0.00000000e+00    
           5.31043947e-01     5.15658796e-01     0.00000000e+00    
           5.30155540e-01     5.14077127e-01     0.00000000e+00    
           5.29696345e-01     5.12322068e-01     0.00000000e+00    
           5.29696345e-01     5.10507941e-01     0.00000000e+00    
           5.30155540e-01     5.08752882e-01     0.00000000e+00    
           5.31043947e-01     5.07171214e-01     0.00000000e+00    
           5.32303810e-01     5.05865932e-01     0.00000000e+00    
           4.68517244e-01     5.32760799e-01     0.00000000e+00    
           4.68509018e-01     5.30844629e-01     0.00000000e+00    
           4.68960851e-01     5.28982460e-01     0.00000000e+00    
           4.69846308e-01     5.27283132e-01     0.00000000e+00    
           4.71113682e-01     5.25845945e-01     0.00000000e+00    
           4.72688884e-01     5.24754822e-01     0.00000000e+00    
           4.74479854e-01     5.24073541e-01     0.00000000e+00    
           4.78284091e-01     5.24073601e-01     0.00000000e+00    
           4.80075032e-01     5.24754822e-01     0.00000000e+00    
           4.81650203e-01     5.25845885e-01     0.00000000e+00    
           4.82917547e-01     5.27283013e-01     0.00000000e+00    
           4.83803004e-01     5.28982282e-01     0.00000000e+00    
           4.84254897e-01     5.30844331e-01     0.00000000e+00    
           4.84246761e-01     5.32760441e-01     0.00000000e+00    
           4.82887864e-01     4.67691004e-01     0.00000000e+00    
           4.81620818e-01     4.69110936e-01     0.00000000e+00    
           4.80051905e-01     4.70188022e-01     0.00000000e+00    
           4.78271484e-01     4.70860153e-01     0.00000000e+00    
           4.76382166e-01     4.71088618e-01     0.00000000e+00    
           4.74492878e-01     4.70860243e-01     0.00000000e+00    
           4.72712427e-01     4.70188200e-01     0.00000000e+00    
           4.71143454e-01     4.69111174e-01     0.00000000e+00    
           4.69876349e-01     4.67691302e-01     0.00000000e+00    
           4.88103986e-01     5.33086061e-01     0.00000000e+00    
           4.87431526e-01     5.31323195e-01     0.00000000e+00    
           4.87231195e-01     5.29447019e-01     0.00000000e+00    
           4.87516224e-01     5.27581930e-01     0.00000000e+00    
           4.88267750e-01     5.25851250e-01     0.00000000e+00    
           4.89436030e-01     5.24369657e-01     0.00000000e+00    
           4.90943670e-01     5.23235261e-01     0.00000000e+00    
           4.92690891e-01     5.22523046e-01     0.00000000e+00    
           4.96432930e-01     5.22523701e-01     0.00000000e+00    
           4.98180002e-01     5.23235798e-01     0.00000000e+00    
           4.99687493e-01     5.24370134e-01     0.00000000e+00    
           5.00855684e-01     5.25851607e-01     0.00000000e+00    
           5.01607120e-01     5.27582109e-01     0.00000000e+00    
           5.01892149e-01     5.29447079e-01     0.00000000e+00    
           5.01691818e-01     5.31323016e-01     0.00000000e+00    
           5.01019418e-01     5.33085763e-01     0.00000000e+00    
           4.98371124e-01     4.67269689e-01     0.00000000e+00    
           4.96539861e-01     4.68064904e-01     0.00000000e+00    
           4.94562000e-01     4.68336672e-01     0.00000000e+00    
           4.92584139e-01     4.68064904e-01     0.00000000e+00    
           4.90752876e-01     4.67269689e-01     0.00000000e+00    
           5.32269001e-01     4.75995690e-01     0.00000000e+00    
           5.31541944e-01     4.77750987e-01     0.00000000e+00    
           5.30385315e-01     4.79258329e-01     0.00000000e+00    
           5.28877974e-01     4.80414927e-01     0.00000000e+00    
[...]
      <PointData>
        <DataArray type="Float32" Name="Displacement" NumberOfComponents="3">
           1.20265654e-03     1.07406999e-03     0.00000000e+00    
           1.18162879e-03     1.06249622e-03     0.00000000e+00    
           1.74315137e-05     1.08510733e-03     0.00000000e+00    
           2.23209245e-05     1.06722605e-03     0.00000000e+00    
           3.52566894e-05     1.08046224e-03     0.00000000e+00    
           1.62232097e-03     1.06722605e-03     0.00000000e+00    
           1.61743152e-03     1.08510733e-03     0.00000000e+00    
           2.38894310e-04     1.55200076e-03     0.00000000e+00    
           2.17469045e-04     1.56142272e-03     0.00000000e+00    
           2.22058065e-04     1.54070754e-03     0.00000000e+00    
           2.17469045e-04    -3.85773019e-05     0.00000000e+00    
           2.38894310e-04    -4.79992486e-05     0.00000000e+00    
           6.04815781e-04     1.50280632e-03     0.00000000e+00    
           5.88706520e-04     1.50028383e-03     0.00000000e+00    
           5.99023537e-04     1.48369197e-03     0.00000000e+00    
           5.88706520e-04    -9.97161551e-05     0.00000000e+00    
           6.04815781e-04    -9.71937334e-05     0.00000000e+00    
           1.44570565e-03     2.21016264e-04     0.00000000e+00    
           1.42464309e-03     2.21888564e-04     0.00000000e+00    
           1.46001799e-03     1.36810471e-03     0.00000000e+00    
           1.46222906e-03     1.38260296e-03     0.00000000e+00    
           1.44069537e-03     1.37795811e-03     0.00000000e+00    
          -1.37770898e-04     1.38260296e-03     0.00000000e+00    
          -1.39982032e-04     1.36810471e-03     0.00000000e+00    
           3.84694838e-04     1.23180822e-03     0.00000000e+00    
           3.62069812e-04     1.23663840e-03     0.00000000e+00    
           1.11641688e-03     1.40951131e-03     0.00000000e+00    
           1.09680218e-03     1.40614924e-03     0.00000000e+00    
           8.22047063e-04     4.85858473e-04     0.00000000e+00    
           8.02057795e-04     4.81260067e-04     0.00000000e+00    
           1.23145204e-04     3.06391623e-04     0.00000000e+00    
           1.25398510e-04     2.94356403e-04     0.00000000e+00    
           1.43137018e-04     3.03253561e-04     0.00000000e+00    
           1.72539847e-03     2.94356403e-04     0.00000000e+00    
           1.72314525e-03     3.06391623e-04     0.00000000e+00    
           1.67035862e-04     7.40393472e-04     0.00000000e+00    
           1.46052422e-04     7.48091319e-04     0.00000000e+00    
           4.30214684e-04     3.31711926e-04     0.00000000e+00    
           4.09063592e-04     3.23610497e-04     0.00000000e+00    
           8.53510632e-04     7.07341358e-04     0.00000000e+00    
           8.33614205e-04     7.23430770e-04     0.00000000e+00    
           1.41295779e-03     8.79901985e-04     0.00000000e+00    
           1.39071187e-03     8.78789520e-04     0.00000000e+00    
           4.79704962e-04     8.24186020e-04     0.00000000e+00    
           4.59120580e-04     8.33000347e-04     0.00000000e+00    
           1.21961813e-03     5.72676305e-04     0.00000000e+00    
           1.19639968e-03     5.66194009e-04     0.00000000e+00    
           0.00000000e+00     1.59999996e-03     0.00000000e+00    
           0.00000000e+00     0.00000000e+00     0.00000000e+00    
           1.59999996e-03     0.00000000e+00     0.00000000e+00    
           1.59999996e-03     1.59999996e-03     0.00000000e+00    
           1.20063755e-03     1.07725977e-03     0.00000000e+00    
           1.19809399e-03     1.07919064e-03     0.00000000e+00    
           1.19501341e-03     1.08056271e-03     0.00000000e+00    
           1.19178172e-03     1.08108437e-03     0.00000000e+00    
           1.18858961e-03     1.08042965e-03     0.00000000e+00    
           1.18574302e-03     1.07896561e-03     0.00000000e+00    
           1.18376361e-03     1.07702927e-03     0.00000000e+00    
           1.18216395e-03     1.07482180e-03     0.00000000e+00    
           1.18067686e-03     1.07219804e-03     0.00000000e+00    
           1.18007523e-03     1.06882153e-03     0.00000000e+00    
           1.18030712e-03     1.06559065e-03     0.00000000e+00    
           1.18347246e-03     1.05967140e-03     0.00000000e+00    
           1.18627329e-03     1.05779152e-03     0.00000000e+00    
           1.18917949e-03     1.05651899e-03     0.00000000e+00    
           1.19254261e-03     1.05597975e-03     0.00000000e+00    
           1.19599421e-03     1.05667196e-03     0.00000000e+00    
           1.19934906e-03     1.05817639e-03     0.00000000e+00    
           1.20195118e-03     1.06060330e-03     0.00000000e+00    
           1.20346167e-03     1.06361473e-03     0.00000000e+00    
           1.20383990e-03     1.06626377e-03     0.00000000e+00    
           1.20361324e-03     1.06862816e-03     0.00000000e+00    
           1.20318565e-03     1.07114587e-03     0.00000000e+00    
           2.53678463e-05     1.06647832e-03     0.00000000e+00    
           2.83525897e-05     1.06714200e-03     0.00000000e+00    
           3.05170761e-05     1.06836553e-03     0.00000000e+00    
           3.24492867e-05     1.06992794e-03     0.00000000e+00    
           3.42005333e-05     1.07209431e-03     0.00000000e+00    
           3.53672040e-05     1.07462716e-03     0.00000000e+00    
           3.56435921e-05     1.07769133e-03     0.00000000e+00    
           3.40059232e-05     1.08290813e-03     0.00000000e+00    
           3.24652246e-05     1.08485622e-03     0.00000000e+00    
           3.03948473e-05     1.08662830e-03     0.00000000e+00    
           2.79600918e-05     1.08781690e-03     0.00000000e+00    
           2.51982783e-05     1.08831702e-03     0.00000000e+00    
           2.20977163e-05     1.08821620e-03     0.00000000e+00    
           1.93171836e-05     1.08676450e-03     0.00000000e+00    
           1.61621277e-03     1.08333724e-03     0.00000000e+00    
           1.61515933e-03     1.08135468e-03     0.00000000e+00    
           1.61414011e-03     1.07845117e-03     0.00000000e+00    
           1.61403278e-03     1.07538537e-03     0.00000000e+00    
           1.61526329e-03     1.07228069e-03     0.00000000e+00    
           1.61699904e-03     1.07011851e-03     0.00000000e+00    
           1.61866099e-03     1.06896542e-03     0.00000000e+00    
           1.62036938e-03     1.06811721e-03     0.00000000e+00    
           2.15330903e-04     1.55858300e-03     0.00000000e+00    
           2.14237953e-04     1.55548204e-03     0.00000000e+00    
           2.13930616e-04     1.55251578e-03     0.00000000e+00    
           2.14114625e-04     1.54948584e-03     0.00000000e+00    
           2.15098524e-04     1.54667720e-03     0.00000000e+00    
           2.16875182e-04     1.54402747e-03     0.00000000e+00    
           2.19417489e-04     1.54190499e-03     0.00000000e+00    
           2.24875374e-04     1.54012709e-03     0.00000000e+00    
           2.27268029e-04     1.54000020e-03     0.00000000e+00    
           2.29815341e-04     1.54023198e-03     0.00000000e+00    
           2.32652979e-04     1.54099707e-03     0.00000000e+00    
           2.35356696e-04     1.54315587e-03     0.00000000e+00    
           2.37250337e-04     1.54574576e-03     0.00000000e+00    
           2.38564273e-04     1.54864474e-03     0.00000000e+00    
           2.38444714e-04    -4.48523278e-05     0.00000000e+00    
           2.37340690e-04    -4.18130767e-05     0.00000000e+00    
           2.35514628e-04    -3.93988739e-05     0.00000000e+00    
           2.33122541e-04    -3.73193398e-05     0.00000000e+00    
           2.30583304e-04    -3.62815626e-05     0.00000000e+00    
           2.28215838e-04    -3.56442106e-05     0.00000000e+00    
           2.25776545e-04    -3.52357747e-05     0.00000000e+00    
           2.23065959e-04    -3.54974145e-05     0.00000000e+00    
           2.19970316e-04    -3.66452041e-05     0.00000000e+00    
           5.87489747e-04     1.49755995e-03     0.00000000e+00    
           5.86975366e-04     1.49467564e-03     0.00000000e+00    
           5.87266812e-04     1.49186654e-03     0.00000000e+00    
           5.88177005e-04     1.48890342e-03     0.00000000e+00    
           5.90280455e-04     1.48668746e-03     0.00000000e+00    
           5.92170807e-04     1.48556416e-03     0.00000000e+00    
           5.94086654e-04     1.48472283e-03     0.00000000e+00    
           5.96136728e-04     1.48400257e-03     0.00000000e+00    
           6.02184446e-04     1.48414797e-03     0.00000000e+00    
           6.04994420e-04     1.48582389e-03     0.00000000e+00    
           6.07130700e-04     1.48819236e-03     0.00000000e+00    
           6.08430651e-04     1.49067224e-03     0.00000000e+00    
           6.08787697e-04     1.49321137e-03     0.00000000e+00    
           6.08764472e-04     1.49560161e-03     0.00000000e+00    
           6.08251430e-04     1.49818254e-03     0.00000000e+00    
           6.06824877e-04     1.50061678e-03     0.00000000e+00    
           6.02212443e-04    -9.57007505e-05     0.00000000e+00    
           5.99221501e-04    -9.49111054e-05     0.00000000e+00    
           5.96166297e-04    -9.48548695e-05     0.00000000e+00    
           5.93192934e-04    -9.58334058e-05     0.00000000e+00    
           5.90827200e-04    -9.75087314e-05     0.00000000e+00    
           1.44530134e-03     2.23251685e-04     0.00000000e+00    
           1.44468900e-03     2.25167605e-04     0.00000000e+00    
           1.44367048e-03     2.27506156e-04     0.00000000e+00    
           1.44124462e-03     2.29791942e-04     0.00000000e+00    
           1.43812830e-03     2.31112310e-04     0.00000000e+00    
           1.43520976e-03     2.31351485e-04     0.00000000e+00    
           1.43276260e-03     2.30976497e-04     0.00000000e+00    
           1.43076247e-03     2.30282720e-04     0.00000000e+00    
           1.42906420e-03     2.29323006e-04     0.00000000e+00    
           1.42696127e-03     2.27705677e-04     0.00000000e+00    
           1.42533146e-03     2.25182142e-04     0.00000000e+00    
           1.42479013e-03     2.18897039e-04     0.00000000e+00    
           1.42593170e-03     2.15729568e-04     0.00000000e+00    
           1.42778235e-03     2.13273423e-04     0.00000000e+00    
           1.43009180e-03     2.11652150e-04     0.00000000e+00    
           1.43253501e-03     2.10834434e-04     0.00000000e+00    
           1.43481570e-03     2.10496772e-04     0.00000000e+00    
           1.43720349e-03     2.10524653e-04     0.00000000e+00    
           1.43986277e-03     2.11140825e-04     0.00000000e+00    
           1.44242938e-03     2.12840532e-04     0.00000000e+00    
           1.44441053e-03     2.15319509e-04     0.00000000e+00    
           1.44563173e-03     2.18104615e-04     0.00000000e+00    
           1.46051333e-03     1.38479448e-03     0.00000000e+00    
           1.45835476e-03     1.38662464e-03     0.00000000e+00    
           1.45573844e-03     1.38798635e-03     0.00000000e+00    
           1.45280641e-03     1.38841779e-03     0.00000000e+00    
           1.44977111e-03     1.38830976e-03     0.00000000e+00    
           1.44669926e-03     1.38726551e-03     0.00000000e+00    
           1.44421926e-03     1.38515292e-03     0.00000000e+00    
           1.44239876e-03     1.38271600e-03     0.00000000e+00    
           1.44133531e-03     1.38031621e-03     0.00000000e+00    
           1.44043553e-03     1.37515098e-03     0.00000000e+00    
           1.44109654e-03     1.37234083e-03     0.00000000e+00    
           1.44252833e-03     1.36952358e-03     0.00000000e+00    
           1.44477526e-03     1.36732718e-03     0.00000000e+00    
           1.44717144e-03     1.36582251e-03     0.00000000e+00    
           1.45036110e-03     1.36491191e-03     0.00000000e+00    
           1.45333447e-03     1.36495044e-03     0.00000000e+00    
           1.45587698e-03     1.36567978e-03     0.00000000e+00    
           1.45797932e-03     1.36671204e-03     0.00000000e+00    
          -1.38153235e-04     1.37002987e-03     0.00000000e+00    
          -1.36781338e-04     1.37245411e-03     0.00000000e+00    
          -1.36179195e-04     1.37512817e-03     0.00000000e+00    
          -1.36282062e-04     1.37793121e-03     0.00000000e+00    
          -1.36812509e-04     1.38026767e-03     0.00000000e+00    
           3.84784682e-04     1.23489054e-03     0.00000000e+00    
           3.84083774e-04     1.23784028e-03     0.00000000e+00    
           3.82888975e-04     1.23988057e-03     0.00000000e+00    
           3.81794205e-04     1.24164647e-03     0.00000000e+00    
           3.80120939e-04     1.24345161e-03     0.00000000e+00    
           3.77465069e-04     1.24513358e-03     0.00000000e+00    
           3.74450639e-04     1.24547863e-03     0.00000000e+00    
           3.71961971e-04     1.24535081e-03     0.00000000e+00    
           3.69638175e-04     1.24485663e-03     0.00000000e+00    
           3.67398403e-04     1.24403101e-03     0.00000000e+00    
           3.64761334e-04     1.24223926e-03     0.00000000e+00    
           3.63035244e-04     1.23935728e-03     0.00000000e+00    
           3.61838407e-04     1.23368716e-03     0.00000000e+00    
           3.62170103e-04     1.23101950e-03     0.00000000e+00    
           3.63099185e-04     1.22820260e-03     0.00000000e+00    
           3.64866602e-04     1.22578500e-03     0.00000000e+00    
           3.67245724e-04     1.22402818e-03     0.00000000e+00    
           3.70051945e-04     1.22298906e-03     0.00000000e+00    
           3.72386770e-04     1.22259848e-03     0.00000000e+00    
           3.74679745e-04     1.22249092e-03     0.00000000e+00    
           3.77321034e-04     1.22293714e-03     0.00000000e+00    
           3.79833247e-04     1.22424390e-03     0.00000000e+00    
           3.82137834e-04     1.22629828e-03     0.00000000e+00    
           3.83823790e-04     1.22891320e-03     0.00000000e+00    
           1.11581653e-03     1.41205499e-03     0.00000000e+00    
           1.11407298e-03     1.41454465e-03     0.00000000e+00    
           1.11163373e-03     1.41647214e-03     0.00000000e+00    
           1.10890472e-03     1.41751685e-03     0.00000000e+00    
           1.10596803e-03     1.41765038e-03     0.00000000e+00    
           1.10322423e-03     1.41709624e-03     0.00000000e+00    
           1.10056822e-03     1.41587749e-03     0.00000000e+00    
           1.09848287e-03     1.41382217e-03     0.00000000e+00    
           1.09697774e-03     1.41132937e-03     0.00000000e+00    
           1.09658483e-03     1.40860316e-03     0.00000000e+00    
           1.09747529e-03     1.40360394e-03     0.00000000e+00    
           1.09907612e-03     1.40104210e-03     0.00000000e+00    
           1.10153051e-03     1.39903487e-03     0.00000000e+00    
           1.10474986e-03     1.39758561e-03     0.00000000e+00    
           1.10801740e-03     1.39773998e-03     0.00000000e+00    
           1.11044664e-03     1.39856292e-03     0.00000000e+00    
           1.11262267e-03     1.39965804e-03     0.00000000e+00    
           1.11503340e-03     1.40156155e-03     0.00000000e+00    
           1.11629872e-03     1.40446029e-03     0.00000000e+00    
           1.11667090e-03     1.40712794e-03     0.00000000e+00    
           8.21276219e-04     4.88059974e-04     0.00000000e+00    
           8.19945941e-04     4.90085979e-04     0.00000000e+00    
           8.18079105e-04     4.92235413e-04     0.00000000e+00    
           8.15156847e-04     4.93436062e-04     0.00000000e+00    
           8.12681101e-04     4.93635773e-04     0.00000000e+00    
           8.10760364e-04     4.93426516e-04     0.00000000e+00    
           8.08622106e-04     4.92908061e-04     0.00000000e+00    
           8.06054391e-04     4.92055144e-04     0.00000000e+00    
           8.03439529e-04     4.89714905e-04     0.00000000e+00    
           8.02104187e-04     4.86756471e-04     0.00000000e+00    
           8.01642251e-04     4.83836950e-04     0.00000000e+00    
           8.02813331e-04     4.79416456e-04     0.00000000e+00    
           8.03826668e-04     4.77606838e-04     0.00000000e+00    
           8.05291289e-04     4.75801702e-04     0.00000000e+00    
           8.07440956e-04     4.74377710e-04     0.00000000e+00    
           8.10111524e-04     4.73394961e-04     0.00000000e+00    
           8.13137216e-04     4.73112596e-04     0.00000000e+00    
           8.16013140e-04     4.73952823e-04     0.00000000e+00    
           8.18570203e-04     4.75444278e-04     0.00000000e+00    
           8.20747460e-04     4.77785710e-04     0.00000000e+00    
           8.22047063e-04     4.80347488e-04     0.00000000e+00    
           8.22525821e-04     4.83225886e-04     0.00000000e+00    
           1.27408101e-04     2.92602170e-04     0.00000000e+00    
           1.30073051e-04     2.91097473e-04     0.00000000e+00    
           1.33101144e-04     2.90720171e-04     0.00000000e+00    
           1.35816430e-04     2.91382690e-04     0.00000000e+00    
           1.37948999e-04     2.92311975e-04     0.00000000e+00    
           1.39776617e-04     2.93579447e-04     0.00000000e+00    
           1.41929078e-04     2.95479491e-04     0.00000000e+00    
           1.43224679e-04     2.98597792e-04     0.00000000e+00    
           1.43415615e-04     3.01237917e-04     0.00000000e+00    
           1.42609118e-04     3.05257097e-04     0.00000000e+00    
           1.41653858e-04     3.07500304e-04     0.00000000e+00    
           1.39816475e-04     3.09857074e-04     0.00000000e+00    
           1.37326657e-04     3.11638461e-04     0.00000000e+00    
           1.34420567e-04     3.12245771e-04     0.00000000e+00    
           1.31951150e-04     3.12218704e-04     0.00000000e+00    
           1.29417764e-04     3.11779644e-04     0.00000000e+00    
           1.27065636e-04     3.10574222e-04     0.00000000e+00    
           1.24860424e-04     3.08776245e-04     0.00000000e+00    
           1.72217085e-03     3.03429901e-04     0.00000000e+00    
           1.72219367e-03     3.00274318e-04     0.00000000e+00    
           1.72307133e-03     2.97901104e-04     0.00000000e+00    
           1.72412954e-03     2.96201877e-04     0.00000000e+00    
           1.67595179e-04     7.42695993e-04     0.00000000e+00    
           1.67763646e-04     7.45124649e-04     0.00000000e+00    
           1.67288221e-04     7.48053717e-04     0.00000000e+00    
           1.65604841e-04     7.50844309e-04     0.00000000e+00    
           1.63061835e-04     7.53068540e-04     0.00000000e+00    
           1.60330106e-04     7.54478795e-04     0.00000000e+00    
           1.57604445e-04     7.54974724e-04     0.00000000e+00    
           1.54905210e-04     7.55093934e-04     0.00000000e+00    
           1.51955872e-04     7.54335779e-04     0.00000000e+00    
           1.49332525e-04     7.52842927e-04     0.00000000e+00    
           1.47445418e-04     7.50597508e-04     0.00000000e+00    
           1.45253041e-04     7.45291414e-04     0.00000000e+00    
           1.45200684e-04     7.41927768e-04     0.00000000e+00    
           1.46428734e-04     7.38797127e-04     0.00000000e+00    
           1.48104111e-04     7.36438145e-04     0.00000000e+00    
           1.50200212e-04     7.34497036e-04     0.00000000e+00    
           1.52570559e-04     7.33127643e-04     0.00000000e+00    
           1.55293747e-04     7.32230255e-04     0.00000000e+00    
           1.58241033e-04     7.32307730e-04     0.00000000e+00    
           1.61282500e-04     7.33252324e-04     0.00000000e+00    