<?xml version="1.0"?>
<VTKFile type="UnstructuredGrid" version="0.1">
  <UnstructuredGrid>
    <Piece NumberOfPoints="1034" NumberOfCells="1614">
      <Points>
        <DataArray type="Float32" NumberOfComponents="3">
           5.21582007e-01     5.11657000e-01     0.00000000e+00    
           5.07319987e-01     5.11657000e-01     0.00000000e+00    
           4.65243995e-01     5.17907977e-01     0.00000000e+00    
           4.65243995e-01     5.04921973e-01     0.00000000e+00    
           4.75246996e-01     5.11415005e-01     0.00000000e+00    
           5.33852994e-01     5.04921973e-01     0.00000000e+00    
           5.33852994e-01     5.17907977e-01     0.00000000e+00    
           4.83779997e-01     5.34618974e-01     0.00000000e+00    
           4.68984991e-01     5.34618974e-01     0.00000000e+00    
           4.76381987e-01     5.23841977e-01     0.00000000e+00    
           4.68984991e-01     4.66010004e-01     0.00000000e+00    
           4.83779997e-01     4.66010004e-01     0.00000000e+00    
           4.99920011e-01     5.34618974e-01     0.00000000e+00    
           4.89203990e-01     5.34618974e-01     0.00000000e+00    
           4.94562000e-01     5.22280991e-01     0.00000000e+00    
           4.89203990e-01     4.66010004e-01     0.00000000e+00    
           4.99920011e-01     4.66010004e-01     0.00000000e+00    
           5.32517016e-01     4.74112004e-01     0.00000000e+00    
           5.17961025e-01     4.74112004e-01     0.00000000e+00    
           5.33852994e-01     5.19801974e-01     0.00000000e+00    
           5.33852994e-01     5.29603004e-01     0.00000000e+00    
           5.19536972e-01     5.24702013e-01     0.00000000e+00    
           4.65243995e-01     5.29603004e-01     0.00000000e+00    
           4.65243995e-01     5.19801974e-01     0.00000000e+00    
           4.92487997e-01     5.17117977e-01     0.00000000e+00    
           4.76904988e-01     5.17117977e-01     0.00000000e+00    
           5.17996013e-01     5.27033985e-01     0.00000000e+00    
           5.04473984e-01     5.27033985e-01     0.00000000e+00    
           5.08446991e-01     4.83435005e-01     0.00000000e+00    
           4.94414002e-01     4.83435005e-01     0.00000000e+00    
           4.65243995e-01     4.83101994e-01     0.00000000e+00    
           4.65243995e-01     4.74415004e-01     0.00000000e+00    
           4.78336990e-01     4.78758007e-01     0.00000000e+00    
           5.33852994e-01     4.74415004e-01     0.00000000e+00    
           5.33852994e-01     4.83101994e-01     0.00000000e+00    
           4.80668008e-01     4.95810986e-01     0.00000000e+00    
           4.66084987e-01     4.95810986e-01     0.00000000e+00    
           4.93930012e-01     4.79214013e-01     0.00000000e+00    
           4.78967011e-01     4.79214013e-01     0.00000000e+00    
           5.09284973e-01     4.97658014e-01     0.00000000e+00    
           4.95503992e-01     4.97658014e-01     0.00000000e+00    
           5.33011973e-01     5.01751006e-01     0.00000000e+00    
           5.17829001e-01     5.01751006e-01     0.00000000e+00    
           4.95451003e-01     5.00564992e-01     0.00000000e+00    
           4.80922014e-01     5.00564992e-01     0.00000000e+00    
           5.25367022e-01     4.88312006e-01     0.00000000e+00    
           5.09521008e-01     4.88312006e-01     0.00000000e+00    
           4.65243995e-01     5.34618974e-01     0.00000000e+00    
           4.65243995e-01     4.66010004e-01     0.00000000e+00    
           5.33852994e-01     4.66010004e-01     0.00000000e+00    
           5.33852994e-01     5.34618974e-01     0.00000000e+00    
           5.21338999e-01     5.13502657e-01     0.00000000e+00    
           5.20626605e-01     5.15222490e-01     0.00000000e+00    
           5.19493401e-01     5.16699374e-01     0.00000000e+00    
           5.18016517e-01     5.17832637e-01     0.00000000e+00    
           5.16296625e-01     5.18545032e-01     0.00000000e+00    
           5.14451027e-01     5.18787980e-01     0.00000000e+00    
           5.12605369e-01     5.18545032e-01     0.00000000e+00    
           5.10885477e-01     5.17832637e-01     0.00000000e+00    
           5.09408593e-01     5.16699374e-01     0.00000000e+00    
           5.08275390e-01     5.15222490e-01     0.00000000e+00    
           5.07562995e-01     5.13502657e-01     0.00000000e+00    
           5.07562995e-01     5.09811342e-01     0.00000000e+00    
           5.08275390e-01     5.08091509e-01     0.00000000e+00    
           5.09408593e-01     5.06614625e-01     0.00000000e+00    
           5.10885477e-01     5.05481362e-01     0.00000000e+00    
           5.12605369e-01     5.04768968e-01     0.00000000e+00    
           5.14451027e-01     5.04526019e-01     0.00000000e+00    
           5.16296625e-01     5.04768968e-01     0.00000000e+00    
           5.18016517e-01     5.05481362e-01     0.00000000e+00    
           5.19493401e-01     5.06614625e-01     0.00000000e+00    
           5.20626605e-01     5.08091509e-01     0.00000000e+00    
           5.21338999e-01     5.09811342e-01     0.00000000e+00    
           4.66931671e-01     5.04409373e-01     0.00000000e+00    
           4.68693614e-01     5.04328012e-01     0.00000000e+00    
           4.70421344e-01     5.04682958e-01     0.00000000e+00    
           4.72008497e-01     5.05452335e-01     0.00000000e+00    
           4.73357379e-01     5.06588817e-01     0.00000000e+00    
           4.74384934e-01     5.08022368e-01     0.00000000e+00    
           4.75027919e-01     5.09664834e-01     0.00000000e+00    
           4.75028187e-01     5.13165236e-01     0.00000000e+00    
           4.74385172e-01     5.14807761e-01     0.00000000e+00    
           4.73357558e-01     5.16241372e-01     0.00000000e+00    
           4.72008646e-01     5.17377913e-01     0.00000000e+00    
           4.70421433e-01     5.18147290e-01     0.00000000e+00    
           4.68693614e-01     5.18502235e-01     0.00000000e+00    
           4.66931641e-01     5.18420875e-01     0.00000000e+00    
           5.32303810e-01     5.16964078e-01     0.00000000e+00    
           5.31043947e-01     5.15658796e-01     0.00000000e+00    
           5.30155540e-01     5.14077127e-01     0.00000000e+00    
           5.29696345e-01     5.12322068e-01     0.00000000e+00    
           5.29696345e-01     5.10507941e-01     0.00000000e+00    
           5.30155540e-01     5.08752882e-01     0.00000000e+00    
           5.31043947e-01     5.07171214e-01     0.00000000e+00    
           5.32303810e-01     5.05865932e-01     0.00000000e+00    
           4.68517244e-01     5.32760799e-01     0.00000000e+00    
           4.68509018e-01     5.30844629e-01     0.00000000e+00    
           4.68960851e-01     5.28982460e-01     0.00000000e+00    
           4.69846308e-01     5.27283132e-01     0.00000000e+00    
           4.71113682e-01     5.25845945e-01     0.00000000e+00    
           4.72688884e-01     5.24754822e-01     0.00000000e+00    
           4.74479854e-01     5.24073541e-01     0.00000000e+00    
           4.78284091e-01     5.24073601e-01     0.00000000e+00    
           4.80075032e-01     5.24754822e-01     0.00000000e+00    
           4.81650203e-01     5.25845885e-01     0.00000000e+00    
           4.82917547e-01     5.27283013e-01     0.00000000e+00    
           4.83803004e-01     5.28982282e-01     0.00000000e+00    
           4.84254897e-01     5.30844331e-01     0.00000000e+00    
           4.84246761e-01     5.32760441e-01     0.00000000e+00    
           4.82887864e-01     4.67691004e-01     0.00000000e+00    
           4.81620818e-01     4.69110936e-01     0.00000000e+00    
           4.80051905e-01     4.70188022e-01     0.00000000e+00    
           4.78271484e-01     4.70860153e-01     0.00000000e+00    
           4.76382166e-01     4.71088618e-01     0.00000000e+00    
           4.74492878e-01     4.70860243e-01     0.00000000e+00    
           4.72712427e-01     4.70188200e-01     0.00000000e+00    
           4.71143454e-01     4.69111174e-01     0.00000000e+00    
           4.69876349e-01     4.67691302e-01     0.00000000e+00    
           4.88103986e-01     5.33086061e-01     0.00000000e+00    
           4.87431526e-01     5.31323195e-01     0.00000000e+00    
           4.87231195e-01     5.29447019e-01     0.00000000e+00    
           4.87516224e-01     5.27581930e-01     0.00000000e+00    
           4.88267750e-01     5.25851250e-01     0.00000000e+00    
           4.89436030e-01     5.24369657e-01     0.00000000e+00    
           4.90943670e-01     5.23235261e-01     0.00000000e+00    
           4.92690891e-01     5.22523046e-01     0.00000000e+00    
           4.96432930e-01     5.22523701e-01     0.00000000e+00    
           4.98180002e-01     5.23235798e-01     0.00000000e+00    
           4.99687493e-01     5.24370134e-01     0.00000000e+00    
           5.00855684e-01     5.25851607e-01     0.00000000e+00    
           5.01607120e-01     5.27582109e-01     0.00000000e+00    
           5.01892149e-01     5.29447079e-01     0.00000000e+00    
           5.01691818e-01     5.31323016e-01     0.00000000e+00    
           5.01019418e-01     5.33085763e-01     0.00000000e+00    
           4.98371124e-01     4.67269689e-01     0.00000000e+00    
           4.96539861e-01     4.68064904e-01     0.00000000e+00    
           4.94562000e-01     4.68336672e-01     0.00000000e+00    
           4.92584139e-01     4.68064904e-01     0.00000000e+00    
           4.90752876e-01     4.67269689e-01     0.00000000e+00    
           5.32269001e-01     4.75995690e-01     0.00000000e+00    
           5.31541944e-01     4.77750987e-01     0.00000000e+00    
           5.30385315e-01     4.79258329e-01     0.00000000e+00    
           5.28877974e-01     4.80414927e-01     0.00000000e+00    
[...]
      <PointData>
        <DataArray type="Float32" Name="Displacement" NumberOfComponents="3">
           6.60857942e-04     5.76614984e-04     0.00000000e+00    
           6.42897154e-04     5.69858355e-04     0.00000000e+00    
          -8.78361607e-06     5.93538280e-04     0.00000000e+00    
          -4.89561262e-06     5.75687969e-04     0.00000000e+00    
           7.44412318e-06     5.89542557e-04     0.00000000e+00    
           8.45104398e-04     5.75687969e-04     0.00000000e+00    
           8.41216359e-04     5.93538280e-04     0.00000000e+00    
           1.32039830e-04     8.32665362e-04     0.00000000e+00    
           1.13258444e-04     8.42588546e-04     0.00000000e+00    
           1.15859359e-04     8.22640781e-04     0.00000000e+00    
           1.13258444e-04    -7.41146914e-06     0.00000000e+00    
           1.32039830e-04    -1.73346325e-05     0.00000000e+00    
           3.10647883e-04     7.94938474e-04     0.00000000e+00    
           2.95013131e-04     8.02570779e-04     0.00000000e+00    
           2.93672405e-04     7.83859519e-04     0.00000000e+00    
           2.95013131e-04    -4.74291919e-05     0.00000000e+00    
           3.10647883e-04    -5.50615368e-05     0.00000000e+00    
           7.85928336e-04     1.30306056e-04     0.00000000e+00    
           7.66899611e-04     1.35527138e-04     0.00000000e+00    
           7.80122355e-04     7.30937347e-04     0.00000000e+00    
           7.82760384e-04     7.44854158e-04     0.00000000e+00    
           7.61931937e-04     7.40340038e-04     0.00000000e+00    
          -6.72396054e-05     7.44854158e-04     0.00000000e+00    
          -6.98776494e-05     7.30937347e-04     0.00000000e+00    
           1.89520288e-04     6.77179720e-04     0.00000000e+00    
           1.70002459e-04     6.83726510e-04     0.00000000e+00    
           6.12567877e-04     7.45021855e-04     0.00000000e+00    
           5.93306788e-04     7.34875794e-04     0.00000000e+00    
           4.30856395e-04     2.82733934e-04     0.00000000e+00    
           4.11453570e-04     2.74726423e-04     0.00000000e+00    
           7.31838300e-05     1.66284546e-04     0.00000000e+00    
           7.26622529e-05     1.55488713e-04     0.00000000e+00    
           9.11554016e-05     1.60677941e-04     0.00000000e+00    
           9.22662264e-04     1.55488713e-04     0.00000000e+00    
           9.23183805e-04     1.66284546e-04     0.00000000e+00    
           8.90745578e-05     4.21320263e-04     0.00000000e+00    
           6.96004499e-05     4.16758412e-04     0.00000000e+00    
           2.23821437e-04     1.88452948e-04     0.00000000e+00    
           2.03053060e-04     1.72215310e-04     0.00000000e+00    
           4.46334656e-04     3.73135117e-04     0.00000000e+00    
           4.26817365e-04     3.89862369e-04     0.00000000e+00    
           7.53831060e-04     4.86891018e-04     0.00000000e+00    
           7.32737302e-04     4.86677396e-04     0.00000000e+00    
           2.43823917e-04     4.52619890e-04     0.00000000e+00    
           2.23695664e-04     4.64294048e-04     0.00000000e+00    
           6.45437161e-04     3.26452195e-04     0.00000000e+00    
           6.23508357e-04     3.15564743e-04     0.00000000e+00    
           0.00000000e+00     8.50000011e-04     0.00000000e+00    
           0.00000000e+00     0.00000000e+00     0.00000000e+00    
           8.50000011e-04     0.00000000e+00     0.00000000e+00    
           8.50000011e-04     8.50000011e-04     0.00000000e+00    
           6.59421843e-04     5.80176769e-04     0.00000000e+00    
           6.57772878e-04     5.82430628e-04     0.00000000e+00    
           6.55675540e-04     5.84013469e-04     0.00000000e+00    
           6.53283438e-04     5.84850088e-04     0.00000000e+00    
           6.50585047e-04     5.84957190e-04     0.00000000e+00    
           6.48050162e-04     5.84136054e-04     0.00000000e+00    
           6.46461616e-04     5.82790002e-04     0.00000000e+00    
           6.45124470e-04     5.81086613e-04     0.00000000e+00    
           6.43687439e-04     5.78755047e-04     0.00000000e+00    
           6.42654661e-04     5.75702114e-04     0.00000000e+00    
           6.42426370e-04     5.72731718e-04     0.00000000e+00    
           6.43950654e-04     5.67081093e-04     0.00000000e+00    
           6.45692693e-04     5.65192022e-04     0.00000000e+00    
           6.47679262e-04     5.64010756e-04     0.00000000e+00    
           6.49827416e-04     5.63466514e-04     0.00000000e+00    
           6.52452989e-04     5.63444977e-04     0.00000000e+00    
           6.55702432e-04     5.64067042e-04     0.00000000e+00    
           6.58826670e-04     5.65507915e-04     0.00000000e+00    
           6.60784252e-04     5.67484763e-04     0.00000000e+00    
           6.61518425e-04     5.69456955e-04     0.00000000e+00    
           6.61656552e-04     5.71424316e-04     0.00000000e+00    
           6.61299564e-04     5.73638419e-04     0.00000000e+00    
          -1.66521102e-06     5.74808044e-04     0.00000000e+00    
           1.36901281e-06     5.75599959e-04     0.00000000e+00    
           3.19698688e-06     5.76814462e-04     0.00000000e+00    
           4.80383505e-06     5.78398874e-04     0.00000000e+00    
           6.29185070e-06     5.80721884e-04     0.00000000e+00    
           7.36921356e-06     5.83538902e-04     0.00000000e+00    
           7.75353874e-06     5.86809823e-04     0.00000000e+00    
           6.41950373e-06     5.91553166e-04     0.00000000e+00    
           5.17695798e-06     5.92996599e-04     0.00000000e+00    
           3.39303824e-06     5.94399287e-04     0.00000000e+00    
           1.04496144e-06     5.95424441e-04     0.00000000e+00    
          -1.59014314e-06     5.95927530e-04     0.00000000e+00    
          -4.64269033e-06     5.95891615e-04     0.00000000e+00    
          -7.21406832e-06     5.94774901e-04     0.00000000e+00    
           8.40340042e-04     5.91989199e-04     0.00000000e+00    
           8.39880784e-04     5.90270502e-04     0.00000000e+00    
           8.39216576e-04     5.87347837e-04     0.00000000e+00    
           8.39046785e-04     5.84089663e-04     0.00000000e+00    
           8.39701446e-04     5.80730964e-04     0.00000000e+00    
           8.40766996e-04     5.78547537e-04     0.00000000e+00    
           8.41918052e-04     5.77403931e-04     0.00000000e+00    
           8.43354617e-04     5.76502178e-04     0.00000000e+00    
           1.10945955e-04     8.39669723e-04     0.00000000e+00    
           1.09618413e-04     8.36860621e-04     0.00000000e+00    
           1.08847380e-04     8.34504026e-04     0.00000000e+00    
           1.08583670e-04     8.31954763e-04     0.00000000e+00    
           1.09175999e-04     8.29241122e-04     0.00000000e+00    
           1.10800924e-04     8.26558738e-04     0.00000000e+00    
           1.13208487e-04     8.24265881e-04     0.00000000e+00    
           1.18611308e-04     8.21589492e-04     0.00000000e+00    
           1.20790857e-04     8.21024412e-04     0.00000000e+00    
           1.23172751e-04     8.21004622e-04     0.00000000e+00    
           1.25974315e-04     8.21637223e-04     0.00000000e+00    
           1.28769025e-04     8.23890849e-04     0.00000000e+00    
           1.30639848e-04     8.26421194e-04     0.00000000e+00    
           1.31834109e-04     8.29132216e-04     0.00000000e+00    
           1.31603578e-04    -1.39477779e-05     0.00000000e+00    
           1.30714980e-04    -1.08697441e-05     0.00000000e+00    
           1.29438326e-04    -8.38910364e-06     0.00000000e+00    
           1.27448555e-04    -6.21688423e-06     0.00000000e+00    
           1.25237886e-04    -4.96519806e-06     0.00000000e+00    
           1.23229955e-04    -4.12043801e-06     0.00000000e+00    
           1.21175006e-04    -3.61972093e-06     0.00000000e+00    
           1.18814467e-04    -3.88548096e-06     0.00000000e+00    
           1.15801609e-04    -5.21276161e-06     0.00000000e+00    
           2.92201381e-04     8.00827576e-04     0.00000000e+00    
           2.90022901e-04     7.98674999e-04     0.00000000e+00    
           2.88579293e-04     7.96291977e-04     0.00000000e+00    
           2.87820440e-04     7.93190324e-04     0.00000000e+00    
           2.88201816e-04     7.90324353e-04     0.00000000e+00    
           2.88699492e-04     7.88405887e-04     0.00000000e+00    
           2.89573509e-04     7.86639110e-04     0.00000000e+00    
           2.90844589e-04     7.85108015e-04     0.00000000e+00    
           2.97235150e-04     7.83175230e-04     0.00000000e+00    
           3.00822430e-04     7.83293974e-04     0.00000000e+00    
           3.03950248e-04     7.84102012e-04     0.00000000e+00    
           3.06282338e-04     7.85059179e-04     0.00000000e+00    
           3.07978917e-04     7.85873854e-04     0.00000000e+00    
           3.09578085e-04     7.87035038e-04     0.00000000e+00    
           3.10713687e-04     7.88842561e-04     0.00000000e+00    
           3.11198091e-04     7.91594503e-04     0.00000000e+00    
           3.09063238e-04    -5.19734494e-05     0.00000000e+00    
           3.06760339e-04    -4.94249907e-05     0.00000000e+00    
           3.04063142e-04    -4.75977758e-05     0.00000000e+00    
           3.01056716e-04    -4.66696729e-05     0.00000000e+00    
           2.98157334e-04    -4.65760786e-05     0.00000000e+00    
           7.86211051e-04     1.32342830e-04     0.00000000e+00    
           7.86045275e-04     1.34141810e-04     0.00000000e+00    
           7.85327575e-04     1.36150018e-04     0.00000000e+00    
           7.82751944e-04     1.38776377e-04     0.00000000e+00    
           7.79508089e-04     1.40731252e-04     0.00000000e+00    
           7.76768255e-04     1.41484241e-04     0.00000000e+00    
           7.74900021e-04     1.42226010e-04     0.00000000e+00    
           7.73151289e-04     1.42357632e-04     0.00000000e+00    
           7.71645806e-04     1.42093588e-04     0.00000000e+00    
           7.69694045e-04     1.41039724e-04     0.00000000e+00    
           7.67897640e-04     1.38831994e-04     0.00000000e+00    
           7.66488258e-04     1.32406407e-04     0.00000000e+00    
           7.66986515e-04     1.28998508e-04     0.00000000e+00    
           7.68174417e-04     1.26188024e-04     0.00000000e+00    
           7.69828272e-04     1.24009603e-04     0.00000000e+00    
           7.71694351e-04     1.22629499e-04     0.00000000e+00    
           7.73449487e-04     1.21721823e-04     0.00000000e+00    
           7.75362074e-04     1.21200894e-04     0.00000000e+00    
           7.77677982e-04     1.21342695e-04     0.00000000e+00    
           7.80470960e-04     1.22618265e-04     0.00000000e+00    
           7.82990071e-04     1.24951883e-04     0.00000000e+00    
           7.84988457e-04     1.27674721e-04     0.00000000e+00    
           7.81070441e-04     7.47069600e-04     0.00000000e+00    
           7.78686604e-04     7.48902268e-04     0.00000000e+00    
           7.76063651e-04     7.50153034e-04     0.00000000e+00    
           7.73798209e-04     7.50410312e-04     0.00000000e+00    
           7.71610066e-04     7.50260311e-04     0.00000000e+00    
           7.68838450e-04     7.49340572e-04     0.00000000e+00    
           7.65988952e-04     7.46997073e-04     0.00000000e+00    
           7.63845223e-04     7.44536112e-04     0.00000000e+00    
           7.62605749e-04     7.42378354e-04     0.00000000e+00    
           7.61792064e-04     7.37734488e-04     0.00000000e+00    
           7.62601092e-04     7.34935922e-04     0.00000000e+00    
           7.64083932e-04     7.32535904e-04     0.00000000e+00    
           7.66113808e-04     7.30808650e-04     0.00000000e+00    
           7.68505153e-04     7.29527848e-04     0.00000000e+00    
           7.71792082e-04     7.28670100e-04     0.00000000e+00    
           7.74792396e-04     7.28626968e-04     0.00000000e+00    
           7.76896835e-04     7.28817540e-04     0.00000000e+00    
           7.78633985e-04     7.29651249e-04     0.00000000e+00    
          -6.82551326e-05     7.32922868e-04     0.00000000e+00    
          -6.69945584e-05     7.35716254e-04     0.00000000e+00    
          -6.62549573e-05     7.38486531e-04     0.00000000e+00    
          -6.62290768e-05     7.41012744e-04     0.00000000e+00    
          -6.65072293e-05     7.42880045e-04     0.00000000e+00    
           1.90225794e-04     6.80432131e-04     0.00000000e+00    
           1.90172999e-04     6.83740247e-04     0.00000000e+00    
           1.89935614e-04     6.85862382e-04     0.00000000e+00    
           1.89439874e-04     6.87856926e-04     0.00000000e+00    
           1.88200138e-04     6.89828128e-04     0.00000000e+00    
           1.85654004e-04     6.91720517e-04     0.00000000e+00    
           1.82617747e-04     6.92536880e-04     0.00000000e+00    
           1.80172137e-04     6.92765578e-04     0.00000000e+00    
           1.77952825e-04     6.92480011e-04     0.00000000e+00    
           1.75984242e-04     6.91775116e-04     0.00000000e+00    
           1.73361288e-04     6.89839129e-04     0.00000000e+00    
           1.71401087e-04     6.86532760e-04     0.00000000e+00    
           1.69361476e-04     6.80996862e-04     0.00000000e+00    
           1.69253181e-04     6.78680255e-04     0.00000000e+00    
           1.69844003e-04     6.76167605e-04     0.00000000e+00    
           1.71592954e-04     6.73585804e-04     0.00000000e+00    
           1.73859298e-04     6.71584508e-04     0.00000000e+00    
           1.76245390e-04     6.70259760e-04     0.00000000e+00    
           1.77899608e-04     6.69462257e-04     0.00000000e+00    
           1.79464347e-04     6.68919703e-04     0.00000000e+00    
           1.81565629e-04     6.68989145e-04     0.00000000e+00    
           1.83960787e-04     6.69925415e-04     0.00000000e+00    
           1.86303907e-04     6.71820017e-04     0.00000000e+00    
           1.88204955e-04     6.74301176e-04     0.00000000e+00    
           6.10671530e-04     7.46950798e-04     0.00000000e+00    
           6.07844908e-04     7.48920720e-04     0.00000000e+00    
           6.04520144e-04     7.49947212e-04     0.00000000e+00    
           6.01119187e-04     7.49931263e-04     0.00000000e+00    
           5.97668230e-04     7.48933468e-04     0.00000000e+00    
           5.94599464e-04     7.47097016e-04     0.00000000e+00    
           5.92199329e-04     7.44551828e-04     0.00000000e+00    
           5.90942043e-04     7.41566357e-04     0.00000000e+00    
           5.90706943e-04     7.38707196e-04     0.00000000e+00    
           5.91700082e-04     7.36504735e-04     0.00000000e+00    
           5.95277408e-04     7.33621942e-04     0.00000000e+00    
           5.97723643e-04     7.31954118e-04     0.00000000e+00    
           6.01070467e-04     7.30615167e-04     0.00000000e+00    
           6.05030276e-04     7.29671563e-04     0.00000000e+00    
           6.08365110e-04     7.30170868e-04     0.00000000e+00    
           6.10482006e-04     7.31582753e-04     0.00000000e+00    
           6.12093834e-04     7.33448309e-04     0.00000000e+00    
           6.13881391e-04     7.36244197e-04     0.00000000e+00    
           6.14489429e-04     7.39907031e-04     0.00000000e+00    
           6.13991229e-04     7.42847158e-04     0.00000000e+00    
           4.30106389e-04     2.84495705e-04     0.00000000e+00    
           4.28777683e-04     2.85934570e-04     0.00000000e+00    
           4.26938001e-04     2.87614326e-04     0.00000000e+00    
           4.23865276e-04     2.88920302e-04     0.00000000e+00    
           4.21365665e-04     2.89066840e-04     0.00000000e+00    
           4.19446034e-04     2.88509676e-04     0.00000000e+00    
           4.17433475e-04     2.87393690e-04     0.00000000e+00    
           4.15002694e-04     2.85627961e-04     0.00000000e+00    
           4.12565045e-04     2.82757537e-04     0.00000000e+00    
           4.11311135e-04     2.79497734e-04     0.00000000e+00    
           4.11013141e-04     2.76670675e-04     0.00000000e+00    
           4.12081747e-04     2.73523096e-04     0.00000000e+00    
           4.13080212e-04     2.72353471e-04     0.00000000e+00    
           4.14477079e-04     2.71267636e-04     0.00000000e+00    
           4.16556286e-04     2.70244142e-04     0.00000000e+00    
           4.19265067e-04     2.69645214e-04     0.00000000e+00    
           4.22213983e-04     2.69790704e-04     0.00000000e+00    
           4.24981583e-04     2.70865508e-04     0.00000000e+00    
           4.27446445e-04     2.72608857e-04     0.00000000e+00    
           4.29535750e-04     2.75118538e-04     0.00000000e+00    
           4.30805114e-04     2.77847255e-04     0.00000000e+00    
           4.31226130e-04     2.80633511e-04     0.00000000e+00    
           7.44335193e-05     1.53807312e-04     0.00000000e+00    
           7.71194973e-05     1.51957400e-04     0.00000000e+00    
           7.99728950e-05     1.50904496e-04     0.00000000e+00    
           8.23047594e-05     1.50719483e-04     0.00000000e+00    
           8.42377340e-05     1.50950276e-04     0.00000000e+00    
           8.59811189e-05     1.51656888e-04     0.00000000e+00    
           8.82744207e-05     1.53253830e-04     0.00000000e+00    
           9.01639505e-05     1.56345966e-04     0.00000000e+00    
           9.09844675e-05     1.58779934e-04     0.00000000e+00    
           9.08959410e-05     1.62649245e-04     0.00000000e+00    
           8.98983562e-05     1.64993660e-04     0.00000000e+00    
           8.78112987e-05     1.67598148e-04     0.00000000e+00    
           8.53120000e-05     1.69528445e-04     0.00000000e+00    
           8.32745864e-05     1.70298707e-04     0.00000000e+00    
           8.16488609e-05     1.70607731e-04     0.00000000e+00    
           7.97574321e-05     1.70513056e-04     0.00000000e+00    
           7.76411543e-05     1.69846753e-04     0.00000000e+00    
           7.52891356e-05     1.68415441e-04     0.00000000e+00    
           9.21705330e-04     1.63467499e-04     0.00000000e+00    
           9.21045546e-04     1.60501077e-04     0.00000000e+00    
           9.21235944e-04     1.58546565e-04     0.00000000e+00    
           9.21786879e-04     1.57033937e-04     0.00000000e+00    
           8.82773093e-05     4.23010730e-04     0.00000000e+00    
           8.70076474e-05     4.24436439e-04     0.00000000e+00    
           8.52106459e-05     4.26025304e-04     0.00000000e+00    
           8.22274887e-05     4.27498715e-04     0.00000000e+00    
           7.87966201e-05     4.28378291e-04     0.00000000e+00    
           7.58390161e-05     4.28294472e-04     0.00000000e+00    
           7.37217488e-05     4.27493185e-04     0.00000000e+00    
           7.19452655e-05     4.26367013e-04     0.00000000e+00    
           7.01360332e-05     4.24379192e-04     0.00000000e+00    
           6.90840534e-05     4.21886420e-04     0.00000000e+00    
           6.90540255e-05     4.19300806e-04     0.00000000e+00    
           7.08773077e-05     4.14021924e-04     0.00000000e+00    
           7.28481536e-05     4.11191460e-04     0.00000000e+00    
           7.54786597e-05     4.08944645e-04     0.00000000e+00    
           7.79200200e-05     4.07970540e-04     0.00000000e+00    
           7.99164409e-05     4.07720770e-04     0.00000000e+00    
           8.16843822e-05     4.07936546e-04     0.00000000e+00    
           8.33535451e-05     4.08613909e-04     0.00000000e+00    
           8.52884696e-05     4.10011853e-04     0.00000000e+00    
           8.70716467e-05     4.12224443e-04     0.00000000e+00    