<?xml version="1.0"?>
<VTKFile type="UnstructuredGrid" version="0.1">
  <UnstructuredGrid>
    <Piece NumberOfPoints="1034" NumberOfCells="1614">
      <Points>
        <DataArray type="Float32" NumberOfComponents="3">
           5.21582007e-01     5.11657000e-01     0.00000000e+00    
           5.07319987e-01     5.11657000e-01     0.00000000e+00    
           4.65243995e-01     5.17907977e-01     0.00000000e+00    
           4.65243995e-01     5.04921973e-01     0.00000000e+00    
           4.75246996e-01     5.11415005e-01     0.00000000e+00    
           5.33852994e-01     5.04921973e-01     0.00000000e+00    
           5.33852994e-01     5.17907977e-01     0.00000000e+00    
           4.83779997e-01     5.34618974e-01     0.00000000e+00    
           4.68984991e-01     5.34618974e-01     0.00000000e+00    
           4.76381987e-01     5.23841977e-01     0.00000000e+00    
           4.68984991e-01     4.66010004e-01     0.00000000e+00    
           4.83779997e-01     4.66010004e-01     0.00000000e+00    
           4.99920011e-01     5.34618974e-01     0.00000000e+00    
           4.89203990e-01     5.34618974e-01     0.00000000e+00    
           4.94562000e-01     5.22280991e-01     0.00000000e+00    
           4.89203990e-01     4.66010004e-01     0.00000000e+00    
           4.99920011e-01     4.66010004e-01     0.00000000e+00    
           5.32517016e-01     4.74112004e-01     0.00000000e+00    
           5.17961025e-01     4.74112004e-01     0.00000000e+00    
           5.33852994e-01     5.19801974e-01     0.00000000e+00    
           5.33852994e-01     5.29603004e-01     0.00000000e+00    
           5.19536972e-01     5.24702013e-01     0.00000000e+00    
           4.65243995e-01     5.29603004e-01     0.00000000e+00    
           4.65243995e-01     5.19801974e-01     0.00000000e+00    
           4.92487997e-01     5.17117977e-01     0.00000000e+00    
           4.76904988e-01     5.17117977e-01     0.00000000e+00    
           5.17996013e-01     5.27033985e-01     0.00000000e+00    
           5.04473984e-01     5.27033985e-01     0.00000000e+00    
           5.08446991e-01     4.83435005e-01     0.00000000e+00    
           4.94414002e-01     4.83435005e-01     0.00000000e+00    
           4.65243995e-01     4.83101994e-01     0.00000000e+00    
           4.65243995e-01     4.74415004e-01     0.00000000e+00    
           4.78336990e-01     4.78758007e-01     0.00000000e+00    
           5.33852994e-01     4.74415004e-01     0.00000000e+00    
           5.33852994e-01     4.83101994e-01     0.00000000e+00    
           4.80668008e-01     4.95810986e-01     0.00000000e+00    
           4.66084987e-01     4.95810986e-01     0.00000000e+00    
           4.93930012e-01     4.79214013e-01     0.00000000e+00    
           4.78967011e-01     4.79214013e-01     0.00000000e+00    
           5.09284973e-01     4.97658014e-01     0.00000000e+00    
           4.95503992e-01     4.97658014e-01     0.00000000e+00    
           5.33011973e-01     5.01751006e-01     0.00000000e+00    
           5.17829001e-01     5.01751006e-01     0.00000000e+00    
           4.95451003e-01     5.00564992e-01     0.00000000e+00    
           4.80922014e-01     5.00564992e-01     0.00000000e+00    
           5.25367022e-01     4.88312006e-01     0.00000000e+00    
           5.09521008e-01     4.88312006e-01     0.00000000e+00    
           4.65243995e-01     5.34618974e-01     0.00000000e+00    
           4.65243995e-01     4.66010004e-01     0.00000000e+00    
           5.33852994e-01     4.66010004e-01     0.00000000e+00    
           5.33852994e-01     5.34618974e-01     0.00000000e+00    
           5.21338999e-01     5.13502657e-01     0.00000000e+00    
           5.20626605e-01     5.15222490e-01     0.00000000e+00    
           5.19493401e-01     5.16699374e-01     0.00000000e+00    
           5.18016517e-01     5.17832637e-01     0.00000000e+00    
           5.16296625e-01     5.18545032e-01     0.00000000e+00    
           5.14451027e-01     5.18787980e-01     0.00000000e+00    
           5.12605369e-01     5.18545032e-01     0.00000000e+00    
           5.10885477e-01     5.17832637e-01     0.00000000e+00    
           5.09408593e-01     5.16699374e-01     0.00000000e+00    
           5.08275390e-01     5.15222490e-01     0.00000000e+00    
           5.07562995e-01     5.13502657e-01     0.00000000e+00    
           5.07562995e-01     5.09811342e-01     0.00000000e+00    
           5.08275390e-01     5.08091509e-01     0.00000000e+00    
           5.09408593e-01     5.06614625e-01     0.00000000e+00    
           5.10885477e-01     5.05481362e-01     0.00000000e+00    
           5.12605369e-01     5.04768968e-01     0.00000000e+00    
           5.14451027e-01     5.04526019e-01     0.00000000e+00    
           5.16296625e-01     5.04768968e-01     0.00000000e+00    
           5.18016517e-01     5.05481362e-01     0.00000000e+00    
           5.19493401e-01     5.06614625e-01     0.00000000e+00    
           5.20626605e-01     5.08091509e-01     0.00000000e+00    
           5.21338999e-01     5.09811342e-01     0.00000000e+00    
           4.66931671e-01     5.04409373e-01     0.00000000e+00    
           4.68693614e-01     5.04328012e-01     0.00000000e+00    
           4.70421344e-01     5.04682958e-01     0.00000000e+00    
           4.72008497e-01     5.05452335e-01     0.00000000e+00    
           4.73357379e-01     5.06588817e-01     0.00000000e+00    
           4.74384934e-01     5.08022368e-01     0.00000000e+00    
           4.75027919e-01     5.09664834e-01     0.00000000e+00    
           4.75028187e-01     5.13165236e-01     0.00000000e+00    
           4.74385172e-01     5.14807761e-01     0.00000000e+00    
           4.73357558e-01     5.16241372e-01     0.00000000e+00    
           4.72008646e-01     5.17377913e-01     0.00000000e+00    
           4.70421433e-01     5.18147290e-01     0.00000000e+00    
           4.68693614e-01     5.18502235e-01     0.00000000e+00    
           4.66931641e-01     5.18420875e-01     0.00000000e+00    
           5.32303810e-01     5.16964078e-01     0.00000000e+00    
           5.31043947e-01     5.15658796e-01     0.00000000e+00    
           5.30155540e-01     5.14077127e-01     0.00000000e+00    
           5.29696345e-01     5.12322068e-01     0.00000000e+00    
           5.29696345e-01     5.10507941e-01     0.00000000e+00    
           5.30155540e-01     5.08752882e-01     0.00000000e+00    
           5.31043947e-01     5.07171214e-01     0.00000000e+00    
           5.32303810e-01     5.05865932e-01     0.00000000e+00    
           4.68517244e-01     5.32760799e-01     0.00000000e+00    
           4.68509018e-01     5.30844629e-01     0.00000000e+00    
           4.68960851e-01     5.28982460e-01     0.00000000e+00    
           4.69846308e-01     5.27283132e-01     0.00000000e+00    
           4.71113682e-01     5.25845945e-01     0.00000000e+00    
           4.72688884e-01     5.24754822e-01     0.00000000e+00    
           4.74479854e-01     5.24073541e-01     0.00000000e+00    
           4.78284091e-01     5.24073601e-01     0.00000000e+00    
           4.80075032e-01     5.24754822e-01     0.00000000e+00    
           4.81650203e-01     5.25845885e-01     0.00000000e+00    
           4.82917547e-01     5.27283013e-01     0.00000000e+00    
           4.83803004e-01     5.28982282e-01     0.00000000e+00    
           4.84254897e-01     5.30844331e-01     0.00000000e+00    
           4.84246761e-01     5.32760441e-01     0.00000000e+00    
           4.82887864e-01     4.67691004e-01     0.00000000e+00    
           4.81620818e-01     4.69110936e-01     0.00000000e+00    
           4.80051905e-01     4.70188022e-01     0.00000000e+00    
           4.78271484e-01     4.70860153e-01     0.00000000e+00    
           4.76382166e-01     4.71088618e-01     0.00000000e+00    
           4.74492878e-01     4.70860243e-01     0.00000000e+00    
           4.72712427e-01     4.70188200e-01     0.00000000e+00    
           4.71143454e-01     4.69111174e-01     0.00000000e+00    
           4.69876349e-01     4.67691302e-01     0.00000000e+00    
           4.88103986e-01     5.33086061e-01     0.00000000e+00    
           4.87431526e-01     5.31323195e-01     0.00000000e+00    
           4.87231195e-01     5.29447019e-01     0.00000000e+00    
           4.87516224e-01     5.27581930e-01     0.00000000e+00    
           4.88267750e-01     5.25851250e-01     0.00000000e+00    
           4.89436030e-01     5.24369657e-01     0.00000000e+00    
           4.90943670e-01     5.23235261e-01     0.00000000e+00    
           4.92690891e-01     5.22523046e-01     0.00000000e+00    
           4.96432930e-01     5.22523701e-01     0.00000000e+00    
           4.98180002e-01     5.23235798e-01     0.00000000e+00    
           4.99687493e-01     5.24370134e-01     0.00000000e+00    
           5.00855684e-01     5.25851607e-01     0.00000000e+00    
           5.01607120e-01     5.27582109e-01     0.00000000e+00    
           5.01892149e-01     5.29447079e-01     0.00000000e+00    
           5.01691818e-01     5.31323016e-01     0.00000000e+00    
           5.01019418e-01     5.33085763e-01     0.00000000e+00    
           4.98371124e-01     4.67269689e-01     0.00000000e+00    
           4.96539861e-01     4.68064904e-01     0.00000000e+00    
           4.94562000e-01     4.68336672e-01     0.00000000e+00    
           4.92584139e-01     4.68064904e-01     0.00000000e+00    
           4.90752876e-01     4.67269689e-01     0.00000000e+00    
           5.32269001e-01     4.75995690e-01     0.00000000e+00    
           5.31541944e-01     4.77750987e-01     0.00000000e+00    
           5.30385315e-01     4.79258329e-01     0.00000000e+00    
           5.28877974e-01     4.80414927e-01     0.00000000e+00    
[...]
      <PointData>
        <DataArray type="Float32" Name="Displacement" NumberOfComponents="3">
           4.31018445e-04     3.64287989e-04     0.00000000e+00    
           4.17930802e-04     3.61356389e-04     0.00000000e+00    
          -1.73670451e-05     3.83732549e-04     0.00000000e+00    
          -1.64214252e-05     3.66626366e-04     0.00000000e+00    
          -5.00698843e-06     3.78719677e-04     0.00000000e+00    
           5.33578568e-04     3.66626366e-04     0.00000000e+00    
           5.32632926e-04     3.83732549e-04     0.00000000e+00    
           8.88681316e-05     5.36358857e-04     0.00000000e+00    
           7.46204751e-05     5.47341711e-04     0.00000000e+00    
           7.44443314e-05     5.29854326e-04     0.00000000e+00    
           7.46204751e-05    -2.65827748e-06     0.00000000e+00    
           8.88681316e-05    -1.36411463e-05     0.00000000e+00    
           2.07191682e-04     4.99181682e-04     0.00000000e+00    
           1.95166635e-04     5.10044978e-04     0.00000000e+00    
           1.87674203e-04     4.93436120e-04     0.00000000e+00    
           1.95166635e-04    -3.99550154e-05     0.00000000e+00    
           2.07191682e-04    -5.08183439e-05     0.00000000e+00    
           5.16846601e-04     9.21222600e-05     0.00000000e+00    
           5.00801136e-04     9.87206004e-05     0.00000000e+00    
           5.04107098e-04     4.68349899e-04     0.00000000e+00    
           5.07448975e-04     4.81046562e-04     0.00000000e+00    
           4.89133934e-04     4.78537520e-04     0.00000000e+00    
          -4.25510480e-05     4.81046562e-04     0.00000000e+00    
          -4.58928771e-05     4.68349899e-04     0.00000000e+00    
           1.19911383e-04     4.37198993e-04     0.00000000e+00    
           1.04947576e-04     4.45671700e-04     0.00000000e+00    
           3.97376600e-04     4.75752488e-04     0.00000000e+00    
           3.79277917e-04     4.63850971e-04     0.00000000e+00    
           2.75385450e-04     1.90682360e-04     0.00000000e+00    
           2.56937550e-04     1.77214097e-04     0.00000000e+00    
           5.50320947e-05     1.08049448e-04     0.00000000e+00    
           4.99994640e-05     9.97875977e-05     0.00000000e+00    
           6.91695241e-05     9.95345836e-05     0.00000000e+00    
           5.99999446e-04     9.97875977e-05     0.00000000e+00    
           6.05032081e-04     1.08049448e-04     0.00000000e+00    
           6.09056260e-05     2.80063919e-04     0.00000000e+00    
           4.43897734e-05     2.67908763e-04     0.00000000e+00    
           1.53149085e-04     1.24708487e-04     0.00000000e+00    
           1.32988309e-04     1.07895350e-04     0.00000000e+00    
           2.75966217e-04     2.37366956e-04     0.00000000e+00    
           2.58433487e-04     2.52198486e-04     0.00000000e+00    
           4.83978423e-04     3.14533128e-04     0.00000000e+00    
           4.66597150e-04     3.11591721e-04     0.00000000e+00    
           1.58579132e-04     2.95045000e-04     0.00000000e+00    
           1.39549738e-04     3.06432456e-04     0.00000000e+00    
           4.18881042e-04     2.17078312e-04     0.00000000e+00    
           4.00191173e-04     2.04988479e-04     0.00000000e+00    
           0.00000000e+00     5.49999997e-04     0.00000000e+00    
           0.00000000e+00     0.00000000e+00     0.00000000e+00    
           5.49999997e-04     0.00000000e+00     0.00000000e+00    
           5.49999997e-04     5.49999997e-04     0.00000000e+00    
           4.29970038e-04     3.67251778e-04     0.00000000e+00    
           4.29088017e-04     3.69312183e-04     0.00000000e+00    
           4.27873223e-04     3.70884809e-04     0.00000000e+00    
           4.26241371e-04     3.71722737e-04     0.00000000e+00    
           4.24257247e-04     3.72336392e-04     0.00000000e+00    
           4.22196259e-04     3.72452661e-04     0.00000000e+00    
           4.20999393e-04     3.71726579e-04     0.00000000e+00    
           4.20090713e-04     3.70141788e-04     0.00000000e+00    
           4.19083983e-04     3.67945409e-04     0.00000000e+00    
           4.18286276e-04     3.65602871e-04     0.00000000e+00    
           4.17951116e-04     3.63445404e-04     0.00000000e+00    
           4.18194337e-04     3.59217491e-04     0.00000000e+00    
           4.18821903e-04     3.57504352e-04     0.00000000e+00    
           4.19767224e-04     3.56284640e-04     0.00000000e+00    
           4.21030098e-04     3.55685421e-04     0.00000000e+00    
           4.22981568e-04     3.55429307e-04     0.00000000e+00    
           4.25624021e-04     3.55526136e-04     0.00000000e+00    
           4.28491127e-04     3.55865108e-04     0.00000000e+00    
           4.31123975e-04     3.56223492e-04     0.00000000e+00    
           4.32339089e-04     3.57281708e-04     0.00000000e+00    
           4.32692352e-04     3.59005178e-04     0.00000000e+00    
           4.31842258e-04     3.61332583e-04     0.00000000e+00    
          -1.30746557e-05     3.66105261e-04     0.00000000e+00    
          -1.02521499e-05     3.66594235e-04     0.00000000e+00    
          -8.68082225e-06     3.67465604e-04     0.00000000e+00    
          -7.42349221e-06     3.69059562e-04     0.00000000e+00    
          -6.46797025e-06     3.71503760e-04     0.00000000e+00    
          -5.66099425e-06     3.73966090e-04     0.00000000e+00    
          -5.22949267e-06     3.76549200e-04     0.00000000e+00    
          -5.28764440e-06     3.80261859e-04     0.00000000e+00    
          -6.07884976e-06     3.81218008e-04     0.00000000e+00    
          -7.54830035e-06     3.82117985e-04     0.00000000e+00    
          -9.41867984e-06     3.82792001e-04     0.00000000e+00    
          -1.13453698e-05     3.83327395e-04     0.00000000e+00    
          -1.35843029e-05     3.83695296e-04     0.00000000e+00    
          -1.58218063e-05     3.83745239e-04     0.00000000e+00    
           5.31768135e-04     3.82799131e-04     0.00000000e+00    
           5.31487050e-04     3.81275342e-04     0.00000000e+00    
           5.31160098e-04     3.78219906e-04     0.00000000e+00    
           5.30837511e-04     3.75260192e-04     0.00000000e+00    
           5.30654856e-04     3.72138398e-04     0.00000000e+00    
           5.30445774e-04     3.69681948e-04     0.00000000e+00    
           5.30704099e-04     3.68275127e-04     0.00000000e+00    
           5.31830476e-04     3.67191358e-04     0.00000000e+00    
           7.23366393e-05     5.45031042e-04     0.00000000e+00    
           7.05502098e-05     5.42678055e-04     0.00000000e+00    
           6.93391630e-05     5.40702371e-04     0.00000000e+00    
           6.89493099e-05     5.38685301e-04     0.00000000e+00    
           6.94319824e-05     5.36459847e-04     0.00000000e+00    
           7.06134015e-05     5.34166233e-04     0.00000000e+00    
           7.23599151e-05     5.31932630e-04     0.00000000e+00    
           7.71474442e-05     5.27771597e-04     0.00000000e+00    
           7.91991406e-05     5.26620133e-04     0.00000000e+00    
           8.11464633e-05     5.26496849e-04     0.00000000e+00    
           8.32087098e-05     5.27455413e-04     0.00000000e+00    
           8.55322360e-05     5.29353623e-04     0.00000000e+00    
           8.72987075e-05     5.31295955e-04     0.00000000e+00    
           8.84341280e-05     5.33424376e-04     0.00000000e+00    
           8.89823277e-05    -1.06348443e-05     0.00000000e+00    
           8.87884089e-05    -7.64632023e-06     0.00000000e+00    
           8.80922016e-05    -5.09659503e-06     0.00000000e+00    
           8.65424372e-05    -2.77446384e-06     0.00000000e+00    
           8.45952454e-05    -6.70525822e-07     0.00000000e+00    
           8.27955519e-05     8.68198583e-07     0.00000000e+00    
           8.11066056e-05     1.42524868e-06     0.00000000e+00    
           7.91896600e-05     7.63497610e-07     0.00000000e+00    
           7.68147147e-05    -8.13341558e-07     0.00000000e+00    
           1.92097243e-04     5.09348698e-04     0.00000000e+00    
           1.89267783e-04     5.08144032e-04     0.00000000e+00    
           1.86993639e-04     5.06445649e-04     0.00000000e+00    
           1.85259181e-04     5.03807969e-04     0.00000000e+00    
           1.83927114e-04     5.00437629e-04     0.00000000e+00    
           1.83307435e-04     4.97971079e-04     0.00000000e+00    
           1.83630269e-04     4.95927699e-04     0.00000000e+00    
           1.84845398e-04     4.94470121e-04     0.00000000e+00    
           1.90898121e-04     4.92344785e-04     0.00000000e+00    
           1.94312030e-04     4.91608516e-04     0.00000000e+00    
           1.97827903e-04     4.91376966e-04     0.00000000e+00    
           2.01076647e-04     4.91435872e-04     0.00000000e+00    
           2.03619391e-04     4.91495652e-04     0.00000000e+00    
           2.05742894e-04     4.92135820e-04     0.00000000e+00    
           2.07040983e-04     4.93569183e-04     0.00000000e+00    
           2.07428515e-04     4.96147026e-04     0.00000000e+00    
           2.06309152e-04    -4.78313486e-05     0.00000000e+00    
           2.04887314e-04    -4.51148917e-05     0.00000000e+00    
           2.03008080e-04    -4.28137027e-05     0.00000000e+00    
           2.00661700e-04    -4.10780267e-05     0.00000000e+00    
           1.98144960e-04    -4.00698700e-05     0.00000000e+00    
           5.17740729e-04     9.39260935e-05     0.00000000e+00    
           5.17708249e-04     9.55081632e-05     0.00000000e+00    
           5.16708707e-04     9.71293339e-05     0.00000000e+00    
           5.14019339e-04     9.94725706e-05     0.00000000e+00    
           5.11071004e-04     1.01679710e-04     0.00000000e+00    
           5.08399506e-04     1.03263032e-04     0.00000000e+00    
           5.06590761e-04     1.04748062e-04     0.00000000e+00    
           5.05027943e-04     1.05274084e-04     0.00000000e+00    
           5.03854360e-04     1.05102386e-04     0.00000000e+00    
           5.02547715e-04     1.03736304e-04     0.00000000e+00    
           5.01485192e-04     1.01474470e-04     0.00000000e+00    
           5.00366557e-04     9.61818441e-05     0.00000000e+00    
           5.00455499e-04     9.34612035e-05     0.00000000e+00    
           5.00918890e-04     9.10429080e-05     0.00000000e+00    
           5.01793227e-04     8.88207433e-05     0.00000000e+00    
           5.03052841e-04     8.69255018e-05     0.00000000e+00    
           5.04337426e-04     8.54827449e-05     0.00000000e+00    
           5.05764037e-04     8.47772753e-05     0.00000000e+00    
           5.07547287e-04     8.49588905e-05     0.00000000e+00    
           5.09867503e-04     8.60852742e-05     0.00000000e+00    
           5.12231432e-04     8.77780840e-05     0.00000000e+00    
           5.14637213e-04     8.98318613e-05     0.00000000e+00    
           5.05959324e-04     4.82915930e-04     0.00000000e+00    
           5.04054711e-04     4.84769669e-04     0.00000000e+00    
           5.02002775e-04     4.86511970e-04     0.00000000e+00    
           5.00252878e-04     4.87292098e-04     0.00000000e+00    
           4.98613925e-04     4.87256417e-04     0.00000000e+00    
           4.96288587e-04     4.86256031e-04     0.00000000e+00    
           4.93692874e-04     4.84110409e-04     0.00000000e+00    
           4.91353625e-04     4.82046482e-04     0.00000000e+00    
           4.89681843e-04     4.80248942e-04     0.00000000e+00    
           4.89578641e-04     4.76366229e-04     0.00000000e+00    
           4.90367995e-04     4.74074448e-04     0.00000000e+00    
           4.91440471e-04     4.72181942e-04     0.00000000e+00    
           4.92918363e-04     4.70962434e-04     0.00000000e+00    
           4.94653825e-04     4.70006140e-04     0.00000000e+00    
           4.97016124e-04     4.68970946e-04     0.00000000e+00    
           4.99460963e-04     4.67975391e-04     0.00000000e+00    
           5.01430652e-04     4.66832076e-04     0.00000000e+00    
           5.02998126e-04     4.67096805e-04     0.00000000e+00    
          -4.46883460e-05     4.70619067e-04     0.00000000e+00    
          -4.35891707e-05     4.73153865e-04     0.00000000e+00    
          -4.25819017e-05     4.75587993e-04     0.00000000e+00    
          -4.20356300e-05     4.77851368e-04     0.00000000e+00    
          -4.19566677e-05     4.79471928e-04     0.00000000e+00    
           1.21301426e-04     4.39823896e-04     0.00000000e+00    
           1.22563040e-04     4.43124096e-04     0.00000000e+00    
           1.23514852e-04     4.45651356e-04     0.00000000e+00    
           1.23613689e-04     4.47876228e-04     0.00000000e+00    
           1.22642814e-04     4.49781364e-04     0.00000000e+00    
           1.19969620e-04     4.51302272e-04     0.00000000e+00    
           1.17016556e-04     4.52721491e-04     0.00000000e+00    
           1.14454488e-04     4.53770539e-04     0.00000000e+00    
           1.12356560e-04     4.53855435e-04     0.00000000e+00    
           1.10709298e-04     4.53079934e-04     0.00000000e+00    
           1.08596934e-04     4.50928259e-04     0.00000000e+00    
           1.06689477e-04     4.48074832e-04     0.00000000e+00    
           1.03695143e-04     4.43331985e-04     0.00000000e+00    
           1.03318300e-04     4.41464974e-04     0.00000000e+00    
           1.03846585e-04     4.39558411e-04     0.00000000e+00    
           1.05204468e-04     4.37270734e-04     0.00000000e+00    
           1.06936874e-04     4.34999441e-04     0.00000000e+00    
           1.08932232e-04     4.32878878e-04     0.00000000e+00    
           1.10198613e-04     4.31467750e-04     0.00000000e+00    
           1.11277601e-04     4.30717628e-04     0.00000000e+00    
           1.12834721e-04     4.30917164e-04     0.00000000e+00    
           1.14645103e-04     4.32013476e-04     0.00000000e+00    
           1.16534284e-04     4.33453446e-04     0.00000000e+00    
           1.18345582e-04     4.35138238e-04     0.00000000e+00    
           3.94656876e-04     4.77192720e-04     0.00000000e+00    
           3.91462760e-04     4.78373666e-04     0.00000000e+00    
           3.88280430e-04     4.78608970e-04     0.00000000e+00    
           3.85281979e-04     4.77859809e-04     0.00000000e+00    
           3.82429804e-04     4.76396643e-04     0.00000000e+00    
           3.80038895e-04     4.74405562e-04     0.00000000e+00    
           3.78152588e-04     4.72014217e-04     0.00000000e+00    
           3.76969459e-04     4.69359686e-04     0.00000000e+00    
           3.76519951e-04     4.66895406e-04     0.00000000e+00    
           3.77364282e-04     4.65065561e-04     0.00000000e+00    
           3.81915859e-04     4.63098317e-04     0.00000000e+00    
           3.85098334e-04     4.62046853e-04     0.00000000e+00    
           3.88612534e-04     4.61380463e-04     0.00000000e+00    
           3.92177841e-04     4.60966519e-04     0.00000000e+00    
           3.95124225e-04     4.61310556e-04     0.00000000e+00    
           3.96948715e-04     4.62403725e-04     0.00000000e+00    
           3.98055679e-04     4.64506214e-04     0.00000000e+00    
           3.99136712e-04     4.67731385e-04     0.00000000e+00    
           3.99478624e-04     4.71279694e-04     0.00000000e+00    
           3.99106182e-04     4.73966968e-04     0.00000000e+00    
           2.74389575e-04     1.92052961e-04     0.00000000e+00    
           2.72582052e-04     1.92744948e-04     0.00000000e+00    
           2.69965763e-04     1.93488988e-04     0.00000000e+00    
           2.66451534e-04     1.94118795e-04     0.00000000e+00    
           2.63832771e-04     1.94415858e-04     0.00000000e+00    
           2.61934096e-04     1.93370113e-04     0.00000000e+00    
           2.60252855e-04     1.91079409e-04     0.00000000e+00    
           2.58658110e-04     1.87846294e-04     0.00000000e+00    
           2.57334934e-04     1.84802193e-04     0.00000000e+00    
           2.56706669e-04     1.81693540e-04     0.00000000e+00    
           2.56435800e-04     1.79011098e-04     0.00000000e+00    
           2.57943553e-04     1.76419402e-04     0.00000000e+00    
           2.59618042e-04     1.75961832e-04     0.00000000e+00    
           2.61981564e-04     1.75835361e-04     0.00000000e+00    
           2.64863018e-04     1.76086149e-04     0.00000000e+00    
           2.67609110e-04     1.76732821e-04     0.00000000e+00    
           2.69977754e-04     1.77945898e-04     0.00000000e+00    
           2.71964731e-04     1.79685390e-04     0.00000000e+00    
           2.73493410e-04     1.81762254e-04     0.00000000e+00    
           2.74671591e-04     1.84195960e-04     0.00000000e+00    
           2.75325991e-04     1.86620164e-04     0.00000000e+00    
           2.75549421e-04     1.88994018e-04     0.00000000e+00    
           5.17437365e-05     9.82427082e-05     0.00000000e+00    
           5.39218672e-05     9.61908299e-05     0.00000000e+00    
           5.62011737e-05     9.43033810e-05     0.00000000e+00    
           5.82477296e-05     9.26798166e-05     0.00000000e+00    
           6.00762069e-05     9.18547084e-05     0.00000000e+00    
           6.17760888e-05     9.19508748e-05     0.00000000e+00    
           6.39443242e-05     9.34773198e-05     0.00000000e+00    
           6.61807499e-05     9.60137768e-05     0.00000000e+00    
           6.81578531e-05     9.79316101e-05     0.00000000e+00    
           6.92602771e-05     1.01344420e-04     0.00000000e+00    
           6.79442455e-05     1.03512881e-04     0.00000000e+00    
           6.62431703e-05     1.06044638e-04     0.00000000e+00    
           6.45521795e-05     1.08332861e-04     0.00000000e+00    
           6.33728341e-05     1.09819281e-04     0.00000000e+00    
           6.23615924e-05     1.10644331e-04     0.00000000e+00    
           6.09786730e-05     1.10746550e-04     0.00000000e+00    
           5.91770513e-05     1.10238871e-04     0.00000000e+00    
           5.71128585e-05     1.09311819e-04     0.00000000e+00    
           6.03090040e-04     1.06355110e-04     0.00000000e+00    
           6.00993051e-04     1.04179133e-04     0.00000000e+00    
           5.99822204e-04     1.02602855e-04     0.00000000e+00    
           5.99514111e-04     1.01161364e-04     0.00000000e+00    
           5.96624159e-05     2.81377521e-04     0.00000000e+00    
           5.74670121e-05     2.81982793e-04     0.00000000e+00    
           5.43701317e-05     2.82310153e-04     0.00000000e+00    
           5.08163284e-05     2.82378576e-04     0.00000000e+00    
           4.74384360e-05     2.82127789e-04     0.00000000e+00    
           4.46752783e-05     2.81398214e-04     0.00000000e+00    
           4.29549327e-05     2.80163251e-04     0.00000000e+00    
           4.19327698e-05     2.78231630e-04     0.00000000e+00    
           4.12460504e-05     2.75367172e-04     0.00000000e+00    
           4.12850641e-05     2.72567850e-04     0.00000000e+00    
           4.24096106e-05     2.70167016e-04     0.00000000e+00    
           4.69702718e-05     2.65823095e-04     0.00000000e+00    
           4.97269975e-05     2.63900496e-04     0.00000000e+00    
           5.26141303e-05     2.62525486e-04     0.00000000e+00    
           5.50893819e-05     2.61988345e-04     0.00000000e+00    
           5.69733056e-05     2.62337329e-04     0.00000000e+00    
           5.83225919e-05     2.63559457e-04     0.00000000e+00    
           5.93635195e-05     2.65584793e-04     0.00000000e+00    
           6.04164452e-05     2.68232980e-04     0.00000000e+00    
           6.10566858e-05     2.71154393e-04     0.00000000e+00    