<?xml version="1.0"?>
<VTKFile type="UnstructuredGrid" version="0.1">
  <UnstructuredGrid>
    <Piece NumberOfPoints="1034" NumberOfCells="1614">
      <Points>
        <DataArray type="Float32" NumberOfComponents="3">
           5.21582007e-01     5.11657000e-01     0.00000000e+00    
           5.07319987e-01     5.11657000e-01     0.00000000e+00    
           4.65243995e-01     5.17907977e-01     0.00000000e+00    
           4.65243995e-01     5.04921973e-01     0.00000000e+00    
           4.75246996e-01     5.11415005e-01     0.00000000e+00    
           5.33852994e-01     5.04921973e-01     0.00000000e+00    
           5.33852994e-01     5.17907977e-01     0.00000000e+00    
           4.83779997e-01     5.34618974e-01     0.00000000e+00    
           4.68984991e-01     5.34618974e-01     0.00000000e+00    
           4.76381987e-01     5.23841977e-01     0.00000000e+00    
           4.68984991e-01     4.66010004e-01     0.00000000e+00    
           4.83779997e-01     4.66010004e-01     0.00000000e+00    
           4.99920011e-01     5.34618974e-01     0.00000000e+00    
           4.89203990e-01     5.34618974e-01     0.00000000e+00    
           4.94562000e-01     5.22280991e-01     0.00000000e+00    
           4.89203990e-01     4.66010004e-01     0.00000000e+00    
           4.99920011e-01     4.66010004e-01     0.00000000e+00    
           5.32517016e-01     4.74112004e-01     0.00000000e+00    
           5.17961025e-01     4.74112004e-01     0.00000000e+00    
           5.33852994e-01     5.19801974e-01     0.00000000e+00    
           5.33852994e-01     5.29603004e-01     0.00000000e+00    
           5.19536972e-01     5.24702013e-01     0.00000000e+00    
           4.65243995e-01     5.29603004e-01     0.00000000e+00    
           4.65243995e-01     5.19801974e-01     0.00000000e+00    
           4.92487997e-01     5.17117977e-01     0.00000000e+00    
           4.76904988e-01     5.17117977e-01     0.00000000e+00    
           5.17996013e-01     5.27033985e-01     0.00000000e+00    
           5.04473984e-01     5.27033985e-01     0.00000000e+00    
           5.08446991e-01     4.83435005e-01     0.00000000e+00    
           4.94414002e-01     4.83435005e-01     0.00000000e+00    
           4.65243995e-01     4.83101994e-01     0.00000000e+00    
           4.65243995e-01     4.74415004e-01     0.00000000e+00    
           4.78336990e-01     4.78758007e-01     0.00000000e+00    
           5.33852994e-01     4.74415004e-01     0.00000000e+00    
           5.33852994e-01     4.83101994e-01     0.00000000e+00    
           4.80668008e-01     4.95810986e-01     0.00000000e+00    
           4.66084987e-01     4.95810986e-01     0.00000000e+00    
           4.93930012e-01     4.79214013e-01     0.00000000e+00    
           4.78967011e-01     4.79214013e-01     0.00000000e+00    
           5.09284973e-01     4.97658014e-01     0.00000000e+00    
           4.95503992e-01     4.97658014e-01     0.00000000e+00    
           5.33011973e-01     5.01751006e-01     0.00000000e+00    
           5.17829001e-01     5.01751006e-01     0.00000000e+00    
           4.95451003e-01     5.00564992e-01     0.00000000e+00    
           4.80922014e-01     5.00564992e-01     0.00000000e+00    
           5.25367022e-01     4.88312006e-01     0.00000000e+00    
           5.09521008e-01     4.88312006e-01     0.00000000e+00    
           4.65243995e-01     5.34618974e-01     0.00000000e+00    
           4.65243995e-01     4.66010004e-01     0.00000000e+00    
           5.33852994e-01     4.66010004e-01     0.00000000e+00    
           5.33852994e-01     5.34618974e-01     0.00000000e+00    
           5.21338999e-01     5.13502657e-01     0.00000000e+00    
           5.20626605e-01     5.15222490e-01     0.00000000e+00    
           5.19493401e-01     5.16699374e-01     0.00000000e+00    
           5.18016517e-01     5.17832637e-01     0.00000000e+00    
           5.16296625e-01     5.18545032e-01     0.00000000e+00    
           5.14451027e-01     5.18787980e-01     0.00000000e+00    
           5.12605369e-01     5.18545032e-01     0.00000000e+00    
           5.10885477e-01     5.17832637e-01     0.00000000e+00    
           5.09408593e-01     5.16699374e-01     0.00000000e+00    
           5.08275390e-01     5.15222490e-01     0.00000000e+00    
           5.07562995e-01     5.13502657e-01     0.00000000e+00    
           5.07562995e-01     5.09811342e-01     0.00000000e+00    
           5.08275390e-01     5.08091509e-01     0.00000000e+00    
           5.09408593e-01     5.06614625e-01     0.00000000e+00    
           5.10885477e-01     5.05481362e-01     0.00000000e+00    
           5.12605369e-01     5.04768968e-01     0.00000000e+00    
           5.14451027e-01     5.04526019e-01     0.00000000e+00    
           5.16296625e-01     5.04768968e-01     0.00000000e+00    
           5.18016517e-01     5.05481362e-01     0.00000000e+00    
           5.19493401e-01     5.06614625e-01     0.00000000e+00    
           5.20626605e-01     5.08091509e-01     0.00000000e+00    
           5.21338999e-01     5.09811342e-01     0.00000000e+00    
           4.66931671e-01     5.04409373e-01     0.00000000e+00    
           4.68693614e-01     5.04328012e-01     0.00000000e+00    
           4.70421344e-01     5.04682958e-01     0.00000000e+00    
           4.72008497e-01     5.05452335e-01     0.00000000e+00    
           4.73357379e-01     5.06588817e-01     0.00000000e+00    
           4.74384934e-01     5.08022368e-01     0.00000000e+00    
           4.75027919e-01     5.09664834e-01     0.00000000e+00    
           4.75028187e-01     5.13165236e-01     0.00000000e+00    
           4.74385172e-01     5.14807761e-01     0.00000000e+00    
           4.73357558e-01     5.16241372e-01     0.00000000e+00    
           4.72008646e-01     5.17377913e-01     0.00000000e+00    
           4.70421433e-01     5.18147290e-01     0.00000000e+00    
           4.68693614e-01     5.18502235e-01     0.00000000e+00    
           4.66931641e-01     5.18420875e-01     0.00000000e+00    
           5.32303810e-01     5.16964078e-01     0.00000000e+00    
           5.31043947e-01     5.15658796e-01     0.00000000e+00    
           5.30155540e-01     5.14077127e-01     0.00000000e+00    
           5.29696345e-01     5.12322068e-01     0.00000000e+00    
           5.29696345e-01     5.10507941e-01     0.00000000e+00    
           5.30155540e-01     5.08752882e-01     0.00000000e+00    
           5.31043947e-01     5.07171214e-01     0.00000000e+00    
           5.32303810e-01     5.05865932e-01     0.00000000e+00    
           4.68517244e-01     5.32760799e-01     0.00000000e+00    
           4.68509018e-01     5.30844629e-01     0.00000000e+00    
           4.68960851e-01     5.28982460e-01     0.00000000e+00    
           4.69846308e-01     5.27283132e-01     0.00000000e+00    
           4.71113682e-01     5.25845945e-01     0.00000000e+00    
           4.72688884e-01     5.24754822e-01     0.00000000e+00    
           4.74479854e-01     5.24073541e-01     0.00000000e+00    
           4.78284091e-01     5.24073601e-01     0.00000000e+00    
           4.80075032e-01     5.24754822e-01     0.00000000e+00    
           4.81650203e-01     5.25845885e-01     0.00000000e+00    
           4.82917547e-01     5.27283013e-01     0.00000000e+00    
           4.83803004e-01     5.28982282e-01     0.00000000e+00    
           4.84254897e-01     5.30844331e-01     0.00000000e+00    
           4.84246761e-01     5.32760441e-01     0.00000000e+00    
           4.82887864e-01     4.67691004e-01     0.00000000e+00    
           4.81620818e-01     4.69110936e-01     0.00000000e+00    
           4.80051905e-01     4.70188022e-01     0.00000000e+00    
           4.78271484e-01     4.70860153e-01     0.00000000e+00    
           4.76382166e-01     4.71088618e-01     0.00000000e+00    
           4.74492878e-01     4.70860243e-01     0.00000000e+00    
           4.72712427e-01     4.70188200e-01     0.00000000e+00    
           4.71143454e-01     4.69111174e-01     0.00000000e+00    
           4.69876349e-01     4.67691302e-01     0.00000000e+00    
           4.88103986e-01     5.33086061e-01     0.00000000e+00    
           4.87431526e-01     5.31323195e-01     0.00000000e+00    
           4.87231195e-01     5.29447019e-01     0.00000000e+00    
           4.87516224e-01     5.27581930e-01     0.00000000e+00    
           4.88267750e-01     5.25851250e-01     0.00000000e+00    
           4.89436030e-01     5.24369657e-01     0.00000000e+00    
           4.90943670e-01     5.23235261e-01     0.00000000e+00    
           4.92690891e-01     5.22523046e-01     0.00000000e+00    
           4.96432930e-01     5.22523701e-01     0.00000000e+00    
           4.98180002e-01     5.23235798e-01     0.00000000e+00    
           4.99687493e-01     5.24370134e-01     0.00000000e+00    
           5.00855684e-01     5.25851607e-01     0.00000000e+00    
           5.01607120e-01     5.27582109e-01     0.00000000e+00    
           5.01892149e-01     5.29447079e-01     0.00000000e+00    
           5.01691818e-01     5.31323016e-01     0.00000000e+00    
           5.01019418e-01     5.33085763e-01     0.00000000e+00    
           4.98371124e-01     4.67269689e-01     0.00000000e+00    
           4.96539861e-01     4.68064904e-01     0.00000000e+00    
           4.94562000e-01     4.68336672e-01     0.00000000e+00    
           4.92584139e-01     4.68064904e-01     0.00000000e+00    
           4.90752876e-01     4.67269689e-01     0.00000000e+00    
           5.32269001e-01     4.75995690e-01     0.00000000e+00    
           5.31541944e-01     4.77750987e-01     0.00000000e+00    
           5.30385315e-01     4.79258329e-01     0.00000000e+00    
           5.28877974e-01     4.80414927e-01     0.00000000e+00    
[...]
      <PointData>
        <DataArray type="Float32" Name="Displacement" NumberOfComponents="3">
           1.67007733e-03     1.50104333e-03     0.00000000e+00    
           1.64898520e-03     1.48660573e-03     0.00000000e+00    
           4.18203526e-05     1.50654837e-03     0.00000000e+00    
           4.88048099e-05     1.48865080e-03     0.00000000e+00    
           6.07274269e-05     1.50340365e-03     0.00000000e+00    
           2.29880470e-03     1.48865080e-03     0.00000000e+00    
           2.29182024e-03     1.50654837e-03     0.00000000e+00    
           3.38079990e-04     2.17361818e-03     0.00000000e+00    
           3.16534308e-04     2.18473724e-03     0.00000000e+00    
           3.19908781e-04     2.16323812e-03     0.00000000e+00    
           3.16534308e-04    -6.52627787e-05     0.00000000e+00    
           3.38079990e-04    -7.63819044e-05     0.00000000e+00    
           8.70986492e-04     2.10536993e-03     0.00000000e+00    
           8.55037302e-04     2.09910050e-03     0.00000000e+00    
           8.69631243e-04     2.08422332e-03     0.00000000e+00    
           8.55037302e-04    -1.50899476e-04     0.00000000e+00    
           8.70986492e-04    -1.44629987e-04     0.00000000e+00    
           2.01395876e-03     2.97364080e-04     0.00000000e+00    
           1.99281378e-03     2.94579717e-04     0.00000000e+00    
           2.04784074e-03     1.92087737e-03     0.00000000e+00    
           2.04854575e-03     1.93533348e-03     0.00000000e+00    
           2.02768506e-03     1.92857499e-03     0.00000000e+00    
          -2.01454357e-04     1.93533348e-03     0.00000000e+00    
          -2.02159252e-04     1.92087737e-03     0.00000000e+00    
           5.60414745e-04     1.71040581e-03     0.00000000e+00    
           5.37687738e-04     1.71471701e-03     0.00000000e+00    
           1.55189249e-03     1.98292895e-03     0.00000000e+00    
           1.53222471e-03     1.98142324e-03     0.00000000e+00    
           1.16405613e-03     6.55633805e-04     0.00000000e+00    
           1.14398473e-03     6.51998969e-04     0.00000000e+00    
           1.72262095e-04     4.25003411e-04     0.00000000e+00    
           1.75785535e-04     4.12988884e-04     0.00000000e+00    
           1.92917520e-04     4.23768157e-04     0.00000000e+00    
           2.42578564e-03     4.12988884e-04     0.00000000e+00    
           2.42226198e-03     4.25003411e-04     0.00000000e+00    
           2.37780536e-04     1.01705361e-03     0.00000000e+00    
           2.16728891e-04     1.03232020e-03     0.00000000e+00    
           6.19703031e-04     4.53898858e-04     0.00000000e+00    
           5.98499086e-04     4.49767860e-04     0.00000000e+00    
           1.20642048e-03     9.97749856e-04     0.00000000e+00    
           1.18652545e-03     1.01521658e-03     0.00000000e+00    
           1.98387122e-03     1.21375348e-03     0.00000000e+00    
           1.96160492e-03     1.21425127e-03     0.00000000e+00    
           6.91306428e-04     1.14830094e-03     0.00000000e+00    
           6.70700218e-04     1.15486130e-03     0.00000000e+00    
           1.71527907e-03     7.80587608e-04     0.00000000e+00    
           1.69203884e-03     7.76365341e-04     0.00000000e+00    
           0.00000000e+00     2.24999990e-03     0.00000000e+00    
           0.00000000e+00     0.00000000e+00     0.00000000e+00    
           2.24999990e-03     0.00000000e+00     0.00000000e+00    
           2.24999990e-03     2.24999990e-03     0.00000000e+00    
           1.66771316e-03     1.50407816e-03     0.00000000e+00    
           1.66484504e-03     1.50586478e-03     0.00000000e+00    
           1.66148262e-03     1.50703313e-03     0.00000000e+00    
           1.65800483e-03     1.50727632e-03     0.00000000e+00    
           1.65464240e-03     1.50628458e-03     0.00000000e+00    
           1.65172643e-03     1.50446664e-03     0.00000000e+00    
           1.64974073e-03     1.50216185e-03     0.00000000e+00    
           1.64821290e-03     1.49959640e-03     0.00000000e+00    
           1.64692441e-03     1.49663002e-03     0.00000000e+00    
           1.64668437e-03     1.49303628e-03     0.00000000e+00    
           1.64728798e-03     1.48970541e-03     0.00000000e+00    
           1.65116868e-03     1.48387451e-03     0.00000000e+00    
           1.65431225e-03     1.48209371e-03     0.00000000e+00    
           1.65752973e-03     1.48098578e-03     0.00000000e+00    
           1.66119705e-03     1.48070580e-03     0.00000000e+00    
           1.66484027e-03     1.48177147e-03     0.00000000e+00    
           1.66821165e-03     1.48368836e-03     0.00000000e+00    
           1.67072972e-03     1.48648222e-03     0.00000000e+00    
           1.67210028e-03     1.48984825e-03     0.00000000e+00    
           1.67226233e-03     1.49279810e-03     0.00000000e+00    
           1.67175033e-03     1.49539614e-03     0.00000000e+00    
           1.67099701e-03     1.49807602e-03     0.00000000e+00    
           5.18928064e-05     1.48820085e-03     0.00000000e+00    
           5.48709868e-05     1.48911041e-03     0.00000000e+00    
           5.70328339e-05     1.49060914e-03     0.00000000e+00    
           5.88854455e-05     1.49243558e-03     0.00000000e+00    
           6.04550041e-05     1.49483548e-03     0.00000000e+00    
           6.13706725e-05     1.49752304e-03     0.00000000e+00    
           6.13736629e-05     1.50062190e-03     0.00000000e+00    
           5.92126744e-05     1.50584441e-03     0.00000000e+00    
           5.73949037e-05     1.50774023e-03     0.00000000e+00    
           5.50662335e-05     1.50935678e-03     0.00000000e+00    
           5.24442585e-05     1.51032826e-03     0.00000000e+00    
           4.95685490e-05     1.51056738e-03     0.00000000e+00    
           4.64539698e-05     1.51019916e-03     0.00000000e+00    
           4.36764385e-05     1.50849624e-03     0.00000000e+00    
           2.29071081e-03     1.50451530e-03     0.00000000e+00    
           2.28980416e-03     1.50229386e-03     0.00000000e+00    
           2.28906563e-03     1.49925821e-03     0.00000000e+00    
           2.28927797e-03     1.49616983e-03     0.00000000e+00    
           2.29076040e-03     1.49312289e-03     0.00000000e+00    
           2.29279674e-03     1.49101042e-03     0.00000000e+00    
           2.29473482e-03     1.48997421e-03     0.00000000e+00    
           2.29667220e-03     1.48931297e-03     0.00000000e+00    
           3.14221339e-04     2.18206551e-03     0.00000000e+00    
           3.12855118e-04     2.17901473e-03     0.00000000e+00    
           3.12319869e-04     2.17594602e-03     0.00000000e+00    
           3.12335440e-04     2.17276951e-03     0.00000000e+00    
           3.13196389e-04     2.16980255e-03     0.00000000e+00    
           3.14850855e-04     2.16698251e-03     0.00000000e+00    
           3.17288766e-04     2.16466514e-03     0.00000000e+00    
           3.22771462e-04     2.16243812e-03     0.00000000e+00    
           3.25273373e-04     2.16211611e-03     0.00000000e+00    
           3.27972521e-04     2.16217525e-03     0.00000000e+00    
           3.30994400e-04     2.16281321e-03     0.00000000e+00    
           3.33890173e-04     2.16485676e-03     0.00000000e+00    
           3.36015946e-04     2.16740579e-03     0.00000000e+00    
           3.37531703e-04     2.17030570e-03     0.00000000e+00    
           3.37902457e-04    -7.32051121e-05     0.00000000e+00    
           3.37049161e-04    -7.00023811e-05     0.00000000e+00    
           3.35316756e-04    -6.73486866e-05     0.00000000e+00    
           3.32920579e-04    -6.50242873e-05     0.00000000e+00    
           3.30328796e-04    -6.37694175e-05     0.00000000e+00    
           3.27863003e-04    -6.29231436e-05     0.00000000e+00    
           3.25286237e-04    -6.23269152e-05     0.00000000e+00    
           3.22396780e-04    -6.24382665e-05     0.00000000e+00    
           3.19182000e-04    -6.34660973e-05     0.00000000e+00    
           8.54359416e-04     2.09604879e-03     0.00000000e+00    
           8.54409242e-04     2.09295074e-03     0.00000000e+00    
           8.55335442e-04     2.09003058e-03     0.00000000e+00    
           8.56887433e-04     2.08714395e-03     0.00000000e+00    
           8.59587861e-04     2.08515837e-03     0.00000000e+00    
           8.62005458e-04     2.08439655e-03     0.00000000e+00    
           8.64331087e-04     2.08403170e-03     0.00000000e+00    
           8.66686925e-04     2.08384730e-03     0.00000000e+00    
           8.72573524e-04     2.08534277e-03     0.00000000e+00    
           8.75039084e-04     2.08751485e-03     0.00000000e+00    
           8.76807375e-04     2.09031091e-03     0.00000000e+00    
           8.77705461e-04     2.09321850e-03     0.00000000e+00    
           8.77547020e-04     2.09618756e-03     0.00000000e+00    
           8.76881008e-04     2.09883810e-03     0.00000000e+00    
           8.75684433e-04     2.10148934e-03     0.00000000e+00    
           8.73548153e-04     2.10367911e-03     0.00000000e+00    
           8.68009869e-04    -1.43738696e-04     0.00000000e+00    
           8.64826725e-04    -1.43604557e-04     0.00000000e+00    
           8.61694454e-04    -1.44206104e-04     0.00000000e+00    
           8.58801941e-04    -1.45859827e-04     0.00000000e+00    
           8.56703205e-04    -1.48175517e-04     0.00000000e+00    
           2.01309635e-03     2.99554929e-04     0.00000000e+00    
           2.01206212e-03     3.01317836e-04     0.00000000e+00    
           2.01066397e-03     3.03435227e-04     0.00000000e+00    
           2.00802996e-03     3.05280060e-04     0.00000000e+00    
           2.00487184e-03     3.06196947e-04     0.00000000e+00    
           2.00188509e-03     3.06076166e-04     0.00000000e+00    
           1.99935515e-03     3.05176625e-04     0.00000000e+00    
           1.99744664e-03     3.04007495e-04     0.00000000e+00    
           1.99593650e-03     3.02613043e-04     0.00000000e+00    
           1.99411879e-03     3.00609448e-04     0.00000000e+00    
           1.99295930e-03     2.97845545e-04     0.00000000e+00    
           1.99344684e-03     2.91738863e-04     0.00000000e+00    
           1.99495303e-03     2.88885814e-04     0.00000000e+00    
           1.99710112e-03     2.86711322e-04     0.00000000e+00    
           1.99971325e-03     2.85413407e-04     0.00000000e+00    
           2.00240361e-03     2.84988811e-04     0.00000000e+00    
           2.00480875e-03     2.85108777e-04     0.00000000e+00    
           2.00721482e-03     2.85609392e-04     0.00000000e+00    
           2.00976618e-03     2.86678784e-04     0.00000000e+00    
           2.01201136e-03     2.88796320e-04     0.00000000e+00    
           2.01355666e-03     2.91504140e-04     0.00000000e+00    
           2.01433268e-03     2.94406433e-04     0.00000000e+00    
           2.04660278e-03     1.93730695e-03     0.00000000e+00    
           2.04430614e-03     1.93889276e-03     0.00000000e+00    
           2.04160274e-03     1.94001384e-03     0.00000000e+00    
           2.03855266e-03     1.94019661e-03     0.00000000e+00    
           2.03544972e-03     1.93976075e-03     0.00000000e+00    
           2.03255680e-03     1.93837658e-03     0.00000000e+00    
           2.03037099e-03     1.93609495e-03     0.00000000e+00    
           2.02880916e-03     1.93354639e-03     0.00000000e+00    
           2.02802033e-03     1.93101820e-03     0.00000000e+00    
           2.02773116e-03     1.92577962e-03     0.00000000e+00    
           2.02868297e-03     1.92306377e-03     0.00000000e+00    
           2.03036214e-03     1.92039809e-03     0.00000000e+00    
           2.03283574e-03     1.91844185e-03     0.00000000e+00    
           2.03536870e-03     1.91722414e-03     0.00000000e+00    
           2.03855964e-03     1.91661681e-03     0.00000000e+00    
           2.04151333e-03     1.91693590e-03     0.00000000e+00    
           2.04400462e-03     1.91796757e-03     0.00000000e+00    
           2.04597716e-03     1.91926176e-03     0.00000000e+00    
          -2.00582144e-04     1.92293758e-03     0.00000000e+00    
          -1.99486909e-04     1.92539336e-03     0.00000000e+00    
          -1.99140690e-04     1.92804483e-03     0.00000000e+00    
          -1.99456059e-04     1.93079433e-03     0.00000000e+00    
          -2.00244365e-04     1.93310645e-03     0.00000000e+00    
           5.60467131e-04     1.71341363e-03     0.00000000e+00    
           5.59742912e-04     1.71633938e-03     0.00000000e+00    
           5.58407803e-04     1.71839795e-03     0.00000000e+00    
           5.57217922e-04     1.72012555e-03     0.00000000e+00    
           5.55474020e-04     1.72187621e-03     0.00000000e+00    
           5.52795944e-04     1.72347424e-03     0.00000000e+00    
           5.49771648e-04     1.72373862e-03     0.00000000e+00    
           5.47279604e-04     1.72352546e-03     0.00000000e+00    
           5.44967537e-04     1.72295549e-03     0.00000000e+00    
           5.42725495e-04     1.72204885e-03     0.00000000e+00    
           5.40198875e-04     1.72020914e-03     0.00000000e+00    
           5.38578024e-04     1.71740993e-03     0.00000000e+00    
           5.37501648e-04     1.71177869e-03     0.00000000e+00    
           5.37922315e-04     1.70909276e-03     0.00000000e+00    
           5.38940658e-04     1.70630391e-03     0.00000000e+00    
           5.40746842e-04     1.70396757e-03     0.00000000e+00    
           5.43132832e-04     1.70225906e-03     0.00000000e+00    
           5.45970164e-04     1.70125265e-03     0.00000000e+00    
           5.48396725e-04     1.70094380e-03     0.00000000e+00    
           5.50775789e-04     1.70094310e-03     0.00000000e+00    
           5.53456601e-04     1.70149992e-03     0.00000000e+00    
           5.55910810e-04     1.70292950e-03     0.00000000e+00    
           5.58078871e-04     1.70502102e-03     0.00000000e+00    
           5.59634820e-04     1.70758925e-03     0.00000000e+00    
           1.55157049e-03     1.98560022e-03     0.00000000e+00    
           1.55004021e-03     1.98820629e-03     0.00000000e+00    
           1.54780759e-03     1.99027872e-03     0.00000000e+00    
           1.54525996e-03     1.99151295e-03     0.00000000e+00    
           1.54250988e-03     1.99188315e-03     0.00000000e+00    
           1.53990160e-03     1.99164217e-03     0.00000000e+00    
           1.53724139e-03     1.99080235e-03     0.00000000e+00    
           1.53494638e-03     1.98907033e-03     0.00000000e+00    
           1.53310422e-03     1.98677136e-03     0.00000000e+00    
           1.53233844e-03     1.98400905e-03     0.00000000e+00    
           1.53263973e-03     1.97864464e-03     0.00000000e+00    
           1.53408258e-03     1.97598734e-03     0.00000000e+00    
           1.53631414e-03     1.97391235e-03     0.00000000e+00    
           1.53919903e-03     1.97233097e-03     0.00000000e+00    
           1.54234713e-03     1.97218126e-03     0.00000000e+00    
           1.54483714e-03     1.97272073e-03     0.00000000e+00    
           1.54714915e-03     1.97357009e-03     0.00000000e+00    
           1.54970610e-03     1.97524671e-03     0.00000000e+00    
           1.55119982e-03     1.97793543e-03     0.00000000e+00    
           1.55184709e-03     1.98052055e-03     0.00000000e+00    
           1.16335123e-03     6.57924742e-04     0.00000000e+00    
           1.16207905e-03     6.60049205e-04     0.00000000e+00    
           1.16024038e-03     6.62264414e-04     0.00000000e+00    
           1.15737959e-03     6.63501152e-04     0.00000000e+00    
           1.15492800e-03     6.63780025e-04     0.00000000e+00    
           1.15301099e-03     6.63665531e-04     0.00000000e+00    
           1.15084799e-03     6.63252082e-04     0.00000000e+00    
           1.14827941e-03     6.62472739e-04     0.00000000e+00    
           1.14571617e-03     6.60299440e-04     0.00000000e+00    
           1.14429870e-03     6.57519558e-04     0.00000000e+00    
           1.14370021e-03     6.54654054e-04     0.00000000e+00    
           1.14469312e-03     6.50034228e-04     0.00000000e+00    
           1.14566274e-03     6.48103596e-04     0.00000000e+00    
           1.14712387e-03     6.46149332e-04     0.00000000e+00    
           1.14930386e-03     6.44637272e-04     0.00000000e+00    
           1.15197839e-03     6.43613515e-04     0.00000000e+00    
           1.15497771e-03     6.43299951e-04     0.00000000e+00    
           1.15779729e-03     6.44087093e-04     0.00000000e+00    
           1.16028485e-03     6.45477907e-04     0.00000000e+00    
           1.16242724e-03     6.47637295e-04     0.00000000e+00    
           1.16381561e-03     6.50074740e-04     0.00000000e+00    
           1.16444088e-03     6.52911374e-04     0.00000000e+00    
           1.77979411e-04     4.11402842e-04     0.00000000e+00    
           1.80747476e-04     4.10144741e-04     0.00000000e+00    
           1.83829994e-04     4.09991888e-04     0.00000000e+00    
           1.86618112e-04     4.10918175e-04     0.00000000e+00    
           1.88749618e-04     4.12123394e-04     0.00000000e+00    
           1.90505772e-04     4.13648493e-04     0.00000000e+00    
           1.92470383e-04     4.15760587e-04     0.00000000e+00    
           1.93514614e-04     4.18972864e-04     0.00000000e+00    
           1.93458400e-04     4.21709148e-04     0.00000000e+00    
           1.92131207e-04     4.25750710e-04     0.00000000e+00    
           1.90940205e-04     4.27911116e-04     0.00000000e+00    
           1.88931357e-04     4.30071668e-04     0.00000000e+00    
           1.86354504e-04     4.31662338e-04     0.00000000e+00    
           1.83277312e-04     4.32093337e-04     0.00000000e+00    
           1.80646486e-04     4.31822788e-04     0.00000000e+00    
           1.78050454e-04     4.31107590e-04     0.00000000e+00    
           1.75745445e-04     4.29594395e-04     0.00000000e+00    
           1.73724839e-04     4.27545339e-04     0.00000000e+00    
           2.42154463e-03     4.21984063e-04     0.00000000e+00    
           2.42181006e-03     4.18792217e-04     0.00000000e+00    
           2.42295652e-03     4.16385505e-04     0.00000000e+00    
           2.42427713e-03     4.14731330e-04     0.00000000e+00    
           2.39313449e-04     1.01953873e-03     0.00000000e+00    
           2.40392648e-04     1.02237950e-03     0.00000000e+00    
           2.40688387e-04     1.02593203e-03     0.00000000e+00    
           2.39642904e-04     1.02946686e-03     0.00000000e+00    
           2.37572036e-04     1.03259354e-03     0.00000000e+00    
           2.34990046e-04     1.03503466e-03     0.00000000e+00    
           2.32070932e-04     1.03652186e-03     0.00000000e+00    
           2.28927835e-04     1.03752955e-03     0.00000000e+00    
           2.25337630e-04     1.03753002e-03     0.00000000e+00    
           2.21888913e-04     1.03660801e-03     0.00000000e+00    
           2.19070833e-04     1.03468634e-03     0.00000000e+00    
           2.14941101e-04     1.02944754e-03     0.00000000e+00    
           2.13925348e-04     1.02580257e-03     0.00000000e+00    
           2.14249274e-04     1.02211500e-03     0.00000000e+00    
           2.15293374e-04     1.01892045e-03     0.00000000e+00    
           2.17060035e-04     1.01597421e-03     0.00000000e+00    
           2.19420021e-04     1.01361540e-03     0.00000000e+00    
           2.22409697e-04     1.01174926e-03     0.00000000e+00    
           2.25792115e-04     1.01097836e-03     0.00000000e+00    
           2.29420926e-04     1.01117208e-03     0.00000000e+00    