<?xml version="1.0"?>
<VTKFile type="UnstructuredGrid" version="0.1">
  <UnstructuredGrid>
    <Piece NumberOfPoints="1034" NumberOfCells="1614">
      <Points>
        <DataArray type="Float32" NumberOfComponents="3">
           5.21582007e-01     5.11657000e-01     0.00000000e+00    
           5.07319987e-01     5.11657000e-01     0.00000000e+00    
           4.65243995e-01     5.17907977e-01     0.00000000e+00    
           4.65243995e-01     5.04921973e-01     0.00000000e+00    
           4.75246996e-01     5.11415005e-01     0.00000000e+00    
           5.33852994e-01     5.04921973e-01     0.00000000e+00    
           5.33852994e-01     5.17907977e-01     0.00000000e+00    
           4.83779997e-01     5.34618974e-01     0.00000000e+00    
           4.68984991e-01     5.34618974e-01     0.00000000e+00    
           4.76381987e-01     5.23841977e-01     0.00000000e+00    
           4.68984991e-01     4.66010004e-01     0.00000000e+00    
           4.83779997e-01     4.66010004e-01     0.00000000e+00    
           4.99920011e-01     5.34618974e-01     0.00000000e+00    
           4.89203990e-01     5.34618974e-01     0.00000000e+00    
           4.94562000e-01     5.22280991e-01     0.00000000e+00    
           4.89203990e-01     4.66010004e-01     0.00000000e+00    
           4.99920011e-01     4.66010004e-01     0.00000000e+00    
           5.32517016e-01     4.74112004e-01     0.00000000e+00    
           5.17961025e-01     4.74112004e-01     0.00000000e+00    
           5.33852994e-01     5.19801974e-01     0.00000000e+00    
           5.33852994e-01     5.29603004e-01     0.00000000e+00    
           5.19536972e-01     5.24702013e-01     0.00000000e+00    
           4.65243995e-01     5.29603004e-01     0.00000000e+00    
           4.65243995e-01     5.19801974e-01     0.00000000e+00    
           4.92487997e-01     5.17117977e-01     0.00000000e+00    
           4.76904988e-01     5.17117977e-01     0.00000000e+00    
           5.17996013e-01     5.27033985e-01     0.00000000e+00    
           5.04473984e-01     5.27033985e-01     0.00000000e+00    
           5.08446991e-01     4.83435005e-01     0.00000000e+00    
           4.94414002e-01     4.83435005e-01     0.00000000e+00    
           4.65243995e-01     4.83101994e-01     0.00000000e+00    
           4.65243995e-01     4.74415004e-01     0.00000000e+00    
           4.78336990e-01     4.78758007e-01     0.00000000e+00    
           5.33852994e-01     4.74415004e-01     0.00000000e+00    
           5.33852994e-01     4.83101994e-01     0.00000000e+00    
           4.80668008e-01     4.95810986e-01     0.00000000e+00    
           4.66084987e-01     4.95810986e-01     0.00000000e+00    
           4.93930012e-01     4.79214013e-01     0.00000000e+00    
           4.78967011e-01     4.79214013e-01     0.00000000e+00    
           5.09284973e-01     4.97658014e-01     0.00000000e+00    
           4.95503992e-01     4.97658014e-01     0.00000000e+00    
           5.33011973e-01     5.01751006e-01     0.00000000e+00    
           5.17829001e-01     5.01751006e-01     0.00000000e+00    
           4.95451003e-01     5.00564992e-01     0.00000000e+00    
           4.80922014e-01     5.00564992e-01     0.00000000e+00    
           5.25367022e-01     4.88312006e-01     0.00000000e+00    
           5.09521008e-01     4.88312006e-01     0.00000000e+00    
           4.65243995e-01     5.34618974e-01     0.00000000e+00    
           4.65243995e-01     4.66010004e-01     0.00000000e+00    
           5.33852994e-01     4.66010004e-01     0.00000000e+00    
           5.33852994e-01     5.34618974e-01     0.00000000e+00    
           5.21338999e-01     5.13502657e-01     0.00000000e+00    
           5.20626605e-01     5.15222490e-01     0.00000000e+00    
           5.19493401e-01     5.16699374e-01     0.00000000e+00    
           5.18016517e-01     5.17832637e-01     0.00000000e+00    
           5.16296625e-01     5.18545032e-01     0.00000000e+00    
           5.14451027e-01     5.18787980e-01     0.00000000e+00    
           5.12605369e-01     5.18545032e-01     0.00000000e+00    
           5.10885477e-01     5.17832637e-01     0.00000000e+00    
           5.09408593e-01     5.16699374e-01     0.00000000e+00    
           5.08275390e-01     5.15222490e-01     0.00000000e+00    
           5.07562995e-01     5.13502657e-01     0.00000000e+00    
           5.07562995e-01     5.09811342e-01     0.00000000e+00    
           5.08275390e-01     5.08091509e-01     0.00000000e+00    
           5.09408593e-01     5.06614625e-01     0.00000000e+00    
           5.10885477e-01     5.05481362e-01     0.00000000e+00    
           5.12605369e-01     5.04768968e-01     0.00000000e+00    
           5.14451027e-01     5.04526019e-01     0.00000000e+00    
           5.16296625e-01     5.04768968e-01     0.00000000e+00    
           5.18016517e-01     5.05481362e-01     0.00000000e+00    
           5.19493401e-01     5.06614625e-01     0.00000000e+00    
           5.20626605e-01     5.08091509e-01     0.00000000e+00    
           5.21338999e-01     5.09811342e-01     0.00000000e+00    
           4.66931671e-01     5.04409373e-01     0.00000000e+00    
           4.68693614e-01     5.04328012e-01     0.00000000e+00    
           4.70421344e-01     5.04682958e-01     0.00000000e+00    
           4.72008497e-01     5.05452335e-01     0.00000000e+00    
           4.73357379e-01     5.06588817e-01     0.00000000e+00    
           4.74384934e-01     5.08022368e-01     0.00000000e+00    
           4.75027919e-01     5.09664834e-01     0.00000000e+00    
           4.75028187e-01     5.13165236e-01     0.00000000e+00    
           4.74385172e-01     5.14807761e-01     0.00000000e+00    
           4.73357558e-01     5.16241372e-01     0.00000000e+00    
           4.72008646e-01     5.17377913e-01     0.00000000e+00    
           4.70421433e-01     5.18147290e-01     0.00000000e+00    
           4.68693614e-01     5.18502235e-01     0.00000000e+00    
           4.66931641e-01     5.18420875e-01     0.00000000e+00    
           5.32303810e-01     5.16964078e-01     0.00000000e+00    
           5.31043947e-01     5.15658796e-01     0.00000000e+00    
           5.30155540e-01     5.14077127e-01     0.00000000e+00    
           5.29696345e-01     5.12322068e-01     0.00000000e+00    
           5.29696345e-01     5.10507941e-01     0.00000000e+00    
           5.30155540e-01     5.08752882e-01     0.00000000e+00    
           5.31043947e-01     5.07171214e-01     0.00000000e+00    
           5.32303810e-01     5.05865932e-01     0.00000000e+00    
           4.68517244e-01     5.32760799e-01     0.00000000e+00    
           4.68509018e-01     5.30844629e-01     0.00000000e+00    
           4.68960851e-01     5.28982460e-01     0.00000000e+00    
           4.69846308e-01     5.27283132e-01     0.00000000e+00    
           4.71113682e-01     5.25845945e-01     0.00000000e+00    
           4.72688884e-01     5.24754822e-01     0.00000000e+00    
           4.74479854e-01     5.24073541e-01     0.00000000e+00    
           4.78284091e-01     5.24073601e-01     0.00000000e+00    
           4.80075032e-01     5.24754822e-01     0.00000000e+00    
           4.81650203e-01     5.25845885e-01     0.00000000e+00    
           4.82917547e-01     5.27283013e-01     0.00000000e+00    
           4.83803004e-01     5.28982282e-01     0.00000000e+00    
           4.84254897e-01     5.30844331e-01     0.00000000e+00    
           4.84246761e-01     5.32760441e-01     0.00000000e+00    
           4.82887864e-01     4.67691004e-01     0.00000000e+00    
           4.81620818e-01     4.69110936e-01     0.00000000e+00    
           4.80051905e-01     4.70188022e-01     0.00000000e+00    
           4.78271484e-01     4.70860153e-01     0.00000000e+00    
           4.76382166e-01     4.71088618e-01     0.00000000e+00    
           4.74492878e-01     4.70860243e-01     0.00000000e+00    
           4.72712427e-01     4.70188200e-01     0.00000000e+00    
           4.71143454e-01     4.69111174e-01     0.00000000e+00    
           4.69876349e-01     4.67691302e-01     0.00000000e+00    
           4.88103986e-01     5.33086061e-01     0.00000000e+00    
           4.87431526e-01     5.31323195e-01     0.00000000e+00    
           4.87231195e-01     5.29447019e-01     0.00000000e+00    
           4.87516224e-01     5.27581930e-01     0.00000000e+00    
           4.88267750e-01     5.25851250e-01     0.00000000e+00    
           4.89436030e-01     5.24369657e-01     0.00000000e+00    
           4.90943670e-01     5.23235261e-01     0.00000000e+00    
           4.92690891e-01     5.22523046e-01     0.00000000e+00    
           4.96432930e-01     5.22523701e-01     0.00000000e+00    
           4.98180002e-01     5.23235798e-01     0.00000000e+00    
           4.99687493e-01     5.24370134e-01     0.00000000e+00    
           5.00855684e-01     5.25851607e-01     0.00000000e+00    
           5.01607120e-01     5.27582109e-01     0.00000000e+00    
           5.01892149e-01     5.29447079e-01     0.00000000e+00    
           5.01691818e-01     5.31323016e-01     0.00000000e+00    
           5.01019418e-01     5.33085763e-01     0.00000000e+00    
           4.98371124e-01     4.67269689e-01     0.00000000e+00    
           4.96539861e-01     4.68064904e-01     0.00000000e+00    
           4.94562000e-01     4.68336672e-01     0.00000000e+00    
           4.92584139e-01     4.68064904e-01     0.00000000e+00    
           4.90752876e-01     4.67269689e-01     0.00000000e+00    
           5.32269001e-01     4.75995690e-01     0.00000000e+00    
           5.31541944e-01     4.77750987e-01     0.00000000e+00    
           5.30385315e-01     4.79258329e-01     0.00000000e+00    
           5.28877974e-01     4.80414927e-01     0.00000000e+00    
[...]
      <PointData>
        <DataArray type="Float32" Name="Displacement" NumberOfComponents="3">
           8.43354093e-04     7.45997590e-04     0.00000000e+00    
           8.23088572e-04     7.37451308e-04     0.00000000e+00    
          -7.76707566e-07     7.62314245e-04     0.00000000e+00    
           3.40962811e-06     7.44492922e-04     0.00000000e+00    
           1.64274334e-05     7.57700473e-04     0.00000000e+00    
           1.10340968e-03     7.44492922e-04     0.00000000e+00    
           1.09922327e-03     7.62314245e-04     0.00000000e+00    
           1.65778663e-04     1.07434392e-03     0.00000000e+00    
           1.45059981e-04     1.08300359e-03     0.00000000e+00    
           1.49794840e-04     1.06273568e-03     0.00000000e+00    
           1.45059981e-04    -1.69963623e-05     0.00000000e+00    
           1.65778663e-04    -2.56560488e-05     0.00000000e+00    
           4.03075101e-04     1.03672524e-03     0.00000000e+00    
           3.86502332e-04     1.03993050e-03     0.00000000e+00    
           3.90617730e-04     1.02154131e-03     0.00000000e+00    
           3.86502332e-04    -6.00695093e-05     0.00000000e+00    
           4.03075101e-04    -6.32747906e-05     0.00000000e+00    
           1.00704690e-03     1.61321790e-04     0.00000000e+00    
           9.86629049e-04     1.65134523e-04     0.00000000e+00    
           1.00757903e-03     9.44440020e-04     0.00000000e+00    
           1.01020513e-03     9.58785997e-04     0.00000000e+00    
           9.88767832e-04     9.54544346e-04     0.00000000e+00    
          -8.97948194e-05     9.58785997e-04     0.00000000e+00    
          -9.24209380e-05     9.44440020e-04     0.00000000e+00    
           2.51583726e-04     8.65899317e-04     0.00000000e+00    
           2.29854835e-04     8.71570897e-04     0.00000000e+00    
           7.83084135e-04     9.68636537e-04     0.00000000e+00    
           7.63662858e-04     9.61700454e-04     0.00000000e+00    
           5.60422719e-04     3.53339448e-04     0.00000000e+00    
           5.40753768e-04     3.47357884e-04     0.00000000e+00    
           8.73372701e-05     2.14298620e-04     0.00000000e+00    
           8.85367190e-05     2.02491894e-04     0.00000000e+00    
           1.06643456e-04     2.09828868e-04     0.00000000e+00    
           1.18853676e-03     2.02491894e-04     0.00000000e+00    
           1.18733721e-03     2.14298620e-04     0.00000000e+00    
           1.14258626e-04     5.29766607e-04     0.00000000e+00    
           9.37785662e-05     5.31063182e-04     0.00000000e+00    
           2.87717325e-04     2.38024513e-04     0.00000000e+00    
           2.66808987e-04     2.24650401e-04     0.00000000e+00    
           5.82782552e-04     4.85427532e-04     0.00000000e+00    
           5.62878908e-04     5.01228147e-04     0.00000000e+00    
           9.73268121e-04     6.23187458e-04     0.00000000e+00    
           9.51308291e-04     6.22421212e-04     0.00000000e+00    
           3.18453152e-04     5.76706312e-04     0.00000000e+00    
           2.98024854e-04     5.87767281e-04     0.00000000e+00    
           8.36627616e-04     4.12587542e-04     0.00000000e+00    
           8.13691877e-04     4.02800884e-04     0.00000000e+00    
           0.00000000e+00     1.09999999e-03     0.00000000e+00    
           0.00000000e+00     0.00000000e+00     0.00000000e+00    
           1.09999999e-03     0.00000000e+00     0.00000000e+00    
           1.09999999e-03     1.09999999e-03     0.00000000e+00    
           8.41689820e-04     7.49564730e-04     0.00000000e+00    
           8.39507324e-04     7.51691172e-04     0.00000000e+00    
           8.36878258e-04     7.53182161e-04     0.00000000e+00    
           8.34079052e-04     7.53948116e-04     0.00000000e+00    
           8.31155805e-04     7.53680535e-04     0.00000000e+00    
           8.28498625e-04     7.52595137e-04     0.00000000e+00    
           8.26698204e-04     7.51073996e-04     0.00000000e+00    
           8.25152965e-04     7.49279978e-04     0.00000000e+00    
           8.23517970e-04     7.47036946e-04     0.00000000e+00    
           8.22423201e-04     7.43838667e-04     0.00000000e+00    
           8.22246133e-04     7.40601157e-04     0.00000000e+00    
           8.24599061e-04     7.34519621e-04     0.00000000e+00    
           8.26953794e-04     7.32650049e-04     0.00000000e+00    
           8.29410099e-04     7.31411041e-04     0.00000000e+00    
           8.32118909e-04     7.30780943e-04     0.00000000e+00    
           8.35146056e-04     7.30953587e-04     0.00000000e+00    
           8.38534848e-04     7.31842767e-04     0.00000000e+00    
           8.41459492e-04     7.33850000e-04     0.00000000e+00    
           8.43154034e-04     7.36421789e-04     0.00000000e+00    
           8.43731454e-04     7.38702249e-04     0.00000000e+00    
           8.43764399e-04     7.40798539e-04     0.00000000e+00    
           8.43546237e-04     7.43088953e-04     0.00000000e+00    
           6.52440895e-06     7.43584009e-04     0.00000000e+00    
           9.55614451e-06     7.44279881e-04     0.00000000e+00    
           1.15609537e-05     7.45446945e-04     0.00000000e+00    
           1.33664453e-05     7.46919366e-04     0.00000000e+00    
           1.51005215e-05     7.48999184e-04     0.00000000e+00    
           1.64038192e-05     7.51587620e-04     0.00000000e+00    
           1.68267452e-05     7.54867797e-04     0.00000000e+00    
           1.52549210e-05     7.59973947e-04     0.00000000e+00    
           1.38919022e-05     7.61713367e-04     0.00000000e+00    
           1.20271843e-05     7.63401971e-04     0.00000000e+00    
           9.68499444e-06     7.64672295e-04     0.00000000e+00    
           6.91892637e-06     7.65294302e-04     0.00000000e+00    
           3.68531823e-06     7.65244593e-04     0.00000000e+00    
           9.55815949e-07     7.63807097e-04     0.00000000e+00    
           1.09815050e-03     7.60670810e-04     0.00000000e+00    
           1.09735003e-03     7.58875161e-04     0.00000000e+00    
           1.09633943e-03     7.56033813e-04     0.00000000e+00    
           1.09607505e-03     7.52811495e-04     0.00000000e+00    
           1.09715480e-03     7.49554019e-04     0.00000000e+00    
           1.09861896e-03     7.47426238e-04     0.00000000e+00    
           1.10004714e-03     7.46295380e-04     0.00000000e+00    
           1.10159710e-03     7.45409168e-04     0.00000000e+00    
           1.42963487e-04     1.07990019e-03     0.00000000e+00    
           1.42051576e-04     1.07684324e-03     0.00000000e+00    
           1.41713070e-04     1.07419956e-03     0.00000000e+00    
           1.41781158e-04     1.07142970e-03     0.00000000e+00    
           1.42611811e-04     1.06868148e-03     0.00000000e+00    
           1.44401740e-04     1.06599182e-03     0.00000000e+00    
           1.47041384e-04     1.06384815e-03     0.00000000e+00    
           1.52537934e-04     1.06218248e-03     0.00000000e+00    
           1.54781388e-04     1.06202858e-03     0.00000000e+00    
           1.57196744e-04     1.06226932e-03     0.00000000e+00    
           1.59968971e-04     1.06303382e-03     0.00000000e+00    
           1.62638782e-04     1.06530823e-03     0.00000000e+00    
           1.64394747e-04     1.06793363e-03     0.00000000e+00    
           1.65595731e-04     1.07079081e-03     0.00000000e+00    
           1.65056990e-04    -2.23645511e-05     0.00000000e+00    
           1.63753430e-04    -1.94756867e-05     0.00000000e+00    
           1.62088181e-04    -1.72412038e-05     0.00000000e+00    
           1.59914693e-04    -1.52901193e-05     0.00000000e+00    
           1.57580667e-04    -1.43146526e-05     0.00000000e+00    
           1.55432848e-04    -1.37220204e-05     0.00000000e+00    
           1.53224304e-04    -1.33494586e-05     0.00000000e+00    
           1.50738808e-04    -1.36325107e-05     0.00000000e+00    
           1.47629646e-04    -1.48183144e-05     0.00000000e+00    
           3.84438317e-04     1.03756995e-03     0.00000000e+00    
           3.83137085e-04     1.03498891e-03     0.00000000e+00    
           3.82532744e-04     1.03238167e-03     0.00000000e+00    
           3.82540718e-04     1.02933066e-03     0.00000000e+00    
           3.83822684e-04     1.02681480e-03     0.00000000e+00    
           3.84960265e-04     1.02527288e-03     0.00000000e+00    
           3.86276690e-04     1.02388556e-03     0.00000000e+00    
           3.87822394e-04     1.02263154e-03     0.00000000e+00    
           3.94148083e-04     1.02124608e-03     0.00000000e+00    
           3.97507101e-04     1.02219381e-03     0.00000000e+00    
           4.00129094e-04     1.02386205e-03     0.00000000e+00    
           4.01901372e-04     1.02555391e-03     0.00000000e+00    
           4.02950798e-04     1.02713797e-03     0.00000000e+00    
           4.03855549e-04     1.02884322e-03     0.00000000e+00    
           4.04342281e-04     1.03100867e-03     0.00000000e+00    
           4.04149148e-04     1.03369984e-03     0.00000000e+00    
           4.00977267e-04    -6.07211878e-05     0.00000000e+00    
           3.98202537e-04    -5.88732291e-05     0.00000000e+00    
           3.95206094e-04    -5.78305771e-05     0.00000000e+00    
           3.92097980e-04    -5.78174186e-05     0.00000000e+00    
           3.89333232e-04    -5.85556190e-05     0.00000000e+00    
           1.00702082e-03     1.63481018e-04     0.00000000e+00    
           1.00671325e-03     1.65376623e-04     0.00000000e+00    
           1.00597471e-03     1.67607330e-04     0.00000000e+00    
           1.00355980e-03     1.70271451e-04     0.00000000e+00    
           1.00029609e-03     1.71944950e-04     0.00000000e+00    
           9.97468363e-04     1.72354834e-04     0.00000000e+00    
           9.95390583e-04     1.72618747e-04     0.00000000e+00    
           9.93510708e-04     1.72430751e-04     0.00000000e+00    
           9.91864130e-04     1.71942345e-04     0.00000000e+00    
           9.89737920e-04     1.70767409e-04     0.00000000e+00    
           9.87758162e-04     1.68532089e-04     0.00000000e+00    
           9.86339408e-04     1.61887263e-04     0.00000000e+00    
           9.87168984e-04     1.58347306e-04     0.00000000e+00    
           9.88814165e-04     1.55616930e-04     0.00000000e+00    
           9.90843517e-04     1.53746907e-04     0.00000000e+00    
           9.92958318e-04     1.52665642e-04     0.00000000e+00    
           9.94954724e-04     1.51981556e-04     0.00000000e+00    
           9.97124938e-04     1.51623113e-04     0.00000000e+00    
           9.99681535e-04     1.51871005e-04     0.00000000e+00    
           1.00256898e-03     1.53182162e-04     0.00000000e+00    
           1.00501417e-03     1.55639180e-04     0.00000000e+00    
           1.00660720e-03     1.58518291e-04     0.00000000e+00    
           1.00858067e-03     9.61089914e-04     0.00000000e+00    
           1.00631011e-03     9.62967752e-04     0.00000000e+00    
           1.00365805e-03     9.64230974e-04     0.00000000e+00    
           1.00107631e-03     9.64564097e-04     0.00000000e+00    
           9.98480828e-04     9.64523235e-04     0.00000000e+00    
           9.95428185e-04     9.63707047e-04     0.00000000e+00    
           9.92598478e-04     9.61492304e-04     0.00000000e+00    
           9.90651431e-04     9.58984194e-04     0.00000000e+00    
           9.89502529e-04     9.56719043e-04     0.00000000e+00    
           9.88425920e-04     9.51816037e-04     0.00000000e+00    
           9.89033608e-04     9.48983303e-04     0.00000000e+00    
           9.90423723e-04     9.46266053e-04     0.00000000e+00    
           9.92511632e-04     9.44115280e-04     0.00000000e+00    
           9.94915143e-04     9.42479994e-04     0.00000000e+00    
           9.98328091e-04     9.41489416e-04     0.00000000e+00    
           1.00142567e-03     9.41639242e-04     0.00000000e+00    
           1.00377935e-03     9.42201586e-04     0.00000000e+00    
           1.00574631e-03     9.43145482e-04     0.00000000e+00    
          -9.05703491e-05     9.46316519e-04     0.00000000e+00    
          -8.91169548e-05     9.48976784e-04     0.00000000e+00    
          -8.85108529e-05     9.51783499e-04     0.00000000e+00    
          -8.86222697e-05     9.54485266e-04     0.00000000e+00    
          -8.90129086e-05     9.56577598e-04     0.00000000e+00    
           2.51831050e-04     8.69223557e-04     0.00000000e+00    
           2.51172954e-04     8.72286153e-04     0.00000000e+00    
           2.50393117e-04     8.74284247e-04     0.00000000e+00    
           2.49574106e-04     8.76131002e-04     0.00000000e+00    
           2.48111784e-04     8.78023100e-04     0.00000000e+00    
           2.45535135e-04     8.79852450e-04     0.00000000e+00    
           2.42560505e-04     8.80365027e-04     0.00000000e+00    
           2.40121954e-04     8.80412874e-04     0.00000000e+00    
           2.37844128e-04     8.80045292e-04     0.00000000e+00    
           2.35731684e-04     8.79351166e-04     0.00000000e+00    
           2.32934108e-04     8.77595332e-04     0.00000000e+00    
           2.31001075e-04     8.74408870e-04     0.00000000e+00    
           2.29498357e-04     8.68680887e-04     0.00000000e+00    
           2.29593599e-04     8.66165094e-04     0.00000000e+00    
           2.30277568e-04     8.63397901e-04     0.00000000e+00    
           2.32028207e-04     8.60764005e-04     0.00000000e+00    
           2.34442021e-04     8.58949032e-04     0.00000000e+00    
           2.37070300e-04     8.57865089e-04     0.00000000e+00    
           2.39057787e-04     8.57294712e-04     0.00000000e+00    
           2.40987807e-04     8.56934639e-04     0.00000000e+00    
           2.43395727e-04     8.57128180e-04     0.00000000e+00    
           2.45962321e-04     8.58121959e-04     0.00000000e+00    
           2.48504250e-04     8.60069995e-04     0.00000000e+00    
           2.50455545e-04     8.62775603e-04     0.00000000e+00    
           7.81888666e-04     9.70865949e-04     0.00000000e+00    
           7.79704540e-04     9.73180518e-04     0.00000000e+00    
           7.76783214e-04     9.74774128e-04     0.00000000e+00    
           7.73597567e-04     9.75420990e-04     0.00000000e+00    
           7.70200742e-04     9.75039962e-04     0.00000000e+00    
           7.67068996e-04     9.73726215e-04     0.00000000e+00    
           7.64478813e-04     9.71593079e-04     0.00000000e+00    
           7.62948708e-04     9.68867389e-04     0.00000000e+00    
           7.62246433e-04     9.66105319e-04     0.00000000e+00    
           7.62690092e-04     9.63684637e-04     0.00000000e+00    
           7.64964789e-04     9.59866797e-04     0.00000000e+00    
           7.66886340e-04     9.57687909e-04     0.00000000e+00    
           7.69786944e-04     9.55871132e-04     0.00000000e+00    
           7.73590349e-04     9.54632356e-04     0.00000000e+00    
           7.76938803e-04     9.55139345e-04     0.00000000e+00    
           7.79182825e-04     9.56369855e-04     0.00000000e+00    
           7.81071023e-04     9.57865268e-04     0.00000000e+00    
           7.83240248e-04     9.60195379e-04     0.00000000e+00    
           7.84103351e-04     9.63529455e-04     0.00000000e+00    
           7.83950964e-04     9.66357009e-04     0.00000000e+00    
           5.59677370e-04     3.55313590e-04     0.00000000e+00    
           5.58383297e-04     3.57084180e-04     0.00000000e+00    
           5.56605053e-04     3.59091791e-04     0.00000000e+00    
           5.53652702e-04     3.60347098e-04     0.00000000e+00    
           5.51197852e-04     3.60502163e-04     0.00000000e+00    
           5.49299002e-04     3.60178296e-04     0.00000000e+00    
           5.47217380e-04     3.59478756e-04     0.00000000e+00    
           5.44618117e-04     3.58404330e-04     0.00000000e+00    
           5.41900692e-04     3.55732278e-04     0.00000000e+00    
           5.40583278e-04     3.52503645e-04     0.00000000e+00    
           5.40278619e-04     3.49583570e-04     0.00000000e+00    
           5.41383924e-04     3.45878419e-04     0.00000000e+00    
           5.42303140e-04     3.44381260e-04     0.00000000e+00    
           5.43608505e-04     3.42916377e-04     0.00000000e+00    
           5.45554445e-04     3.41587176e-04     0.00000000e+00    
           5.48143988e-04     3.40576808e-04     0.00000000e+00    
           5.51192265e-04     3.40257830e-04     0.00000000e+00    
           5.54201484e-04     3.41075473e-04     0.00000000e+00    
           5.56972635e-04     3.42676503e-04     0.00000000e+00    
           5.59308042e-04     3.45248001e-04     0.00000000e+00    
           5.60600311e-04     3.48076836e-04     0.00000000e+00    
           5.60914457e-04     3.50992341e-04     0.00000000e+00    
           9.03946784e-05     2.00720620e-04     0.00000000e+00    
           9.30990573e-05     1.98963942e-04     0.00000000e+00    
           9.61210098e-05     1.98391717e-04     0.00000000e+00    
           9.86394662e-05     1.98766546e-04     0.00000000e+00    
           1.00653873e-04     1.99406859e-04     0.00000000e+00    
           1.02433471e-04     2.00421244e-04     0.00000000e+00    
           1.04715335e-04     2.02149575e-04     0.00000000e+00    
           1.06314415e-04     2.05291464e-04     0.00000000e+00    
           1.06727763e-04     2.07871999e-04     0.00000000e+00    
           1.06266307e-04     2.11812017e-04     0.00000000e+00    
           1.05378233e-04     2.14088926e-04     0.00000000e+00    
           1.03497288e-04     2.16648114e-04     0.00000000e+00    
           1.00868958e-04     2.18497022e-04     0.00000000e+00    
           9.83304562e-05     2.19117617e-04     0.00000000e+00    
           9.62859558e-05     2.19242807e-04     0.00000000e+00    
           9.40620812e-05     2.19003967e-04     0.00000000e+00    
           9.18000515e-05     2.18160232e-04     0.00000000e+00    
           8.93953911e-05     2.16619082e-04     0.00000000e+00    
           1.18610286e-03     2.11180886e-04     0.00000000e+00    
           1.18598936e-03     2.08005731e-04     0.00000000e+00    
           1.18662359e-03     2.05821227e-04     0.00000000e+00    
           1.18746958e-03     2.04214419e-04     0.00000000e+00    
           1.14053291e-04     5.31761325e-04     0.00000000e+00    
           1.13460963e-04     5.33710991e-04     0.00000000e+00    
           1.12347516e-04     5.36018168e-04     0.00000000e+00    
           1.09983106e-04     5.38292632e-04     0.00000000e+00    
           1.06816056e-04     5.39794273e-04     0.00000000e+00    
           1.03906284e-04     5.40218374e-04     0.00000000e+00    
           1.01523154e-04     5.39914705e-04     0.00000000e+00    
           9.93558715e-05     5.39347762e-04     0.00000000e+00    
           9.70366673e-05     5.37981105e-04     0.00000000e+00    
           9.52338160e-05     5.36014035e-04     0.00000000e+00    
           9.42755651e-05     5.33599872e-04     0.00000000e+00    
           9.39038800e-05     5.28208329e-04     0.00000000e+00    
           9.49071618e-05     5.24968316e-04     0.00000000e+00    
           9.70715046e-05     5.22240298e-04     0.00000000e+00    
           9.92793794e-05     5.20709495e-04     0.00000000e+00    
           1.01373400e-04     5.19756053e-04     0.00000000e+00    
           1.03426282e-04     5.19230787e-04     0.00000000e+00    
           1.05570260e-04     5.19137189e-04     0.00000000e+00    
           1.07997403e-04     5.19809662e-04     0.00000000e+00    
           1.10486275e-04     5.21331269e-04     0.00000000e+00    