<?xml version="1.0"?>
<VTKFile type="UnstructuredGrid" version="0.1">
  <UnstructuredGrid>
    <Piece NumberOfPoints="1034" NumberOfCells="1614">
      <Points>
        <DataArray type="Float32" NumberOfComponents="3">
           5.21582007e-01     5.11657000e-01     0.00000000e+00    
           5.07319987e-01     5.11657000e-01     0.00000000e+00    
           4.65243995e-01     5.17907977e-01     0.00000000e+00    
           4.65243995e-01     5.04921973e-01     0.00000000e+00    
           4.75246996e-01     5.11415005e-01     0.00000000e+00    
           5.33852994e-01     5.04921973e-01     0.00000000e+00    
           5.33852994e-01     5.17907977e-01     0.00000000e+00    
           4.83779997e-01     5.34618974e-01     0.00000000e+00    
           4.68984991e-01     5.34618974e-01     0.00000000e+00    
           4.76381987e-01     5.23841977e-01     0.00000000e+00    
           4.68984991e-01     4.66010004e-01     0.00000000e+00    
           4.83779997e-01     4.66010004e-01     0.00000000e+00    
           4.99920011e-01     5.34618974e-01     0.00000000e+00    
           4.89203990e-01     5.34618974e-01     0.00000000e+00    
           4.94562000e-01     5.22280991e-01     0.00000000e+00    
           4.89203990e-01     4.66010004e-01     0.00000000e+00    
           4.99920011e-01     4.66010004e-01     0.00000000e+00    
           5.32517016e-01     4.74112004e-01     0.00000000e+00    
           5.17961025e-01     4.74112004e-01     0.00000000e+00    
           5.33852994e-01     5.19801974e-01     0.00000000e+00    
           5.33852994e-01     5.29603004e-01     0.00000000e+00    
           5.19536972e-01     5.24702013e-01     0.00000000e+00    
           4.65243995e-01     5.29603004e-01     0.00000000e+00    
           4.65243995e-01     5.19801974e-01     0.00000000e+00    
           4.92487997e-01     5.17117977e-01     0.00000000e+00    
           4.76904988e-01     5.17117977e-01     0.00000000e+00    
           5.17996013e-01     5.27033985e-01     0.00000000e+00    
           5.04473984e-01     5.27033985e-01     0.00000000e+00    
           5.08446991e-01     4.83435005e-01     0.00000000e+00    
           4.94414002e-01     4.83435005e-01     0.00000000e+00    
           4.65243995e-01     4.83101994e-01     0.00000000e+00    
           4.65243995e-01     4.74415004e-01     0.00000000e+00    
           4.78336990e-01     4.78758007e-01     0.00000000e+00    
           5.33852994e-01     4.74415004e-01     0.00000000e+00    
           5.33852994e-01     4.83101994e-01     0.00000000e+00    
           4.80668008e-01     4.95810986e-01     0.00000000e+00    
           4.66084987e-01     4.95810986e-01     0.00000000e+00    
           4.93930012e-01     4.79214013e-01     0.00000000e+00    
           4.78967011e-01     4.79214013e-01     0.00000000e+00    
           5.09284973e-01     4.97658014e-01     0.00000000e+00    
           4.95503992e-01     4.97658014e-01     0.00000000e+00    
           5.33011973e-01     5.01751006e-01     0.00000000e+00    
           5.17829001e-01     5.01751006e-01     0.00000000e+00    
           4.95451003e-01     5.00564992e-01     0.00000000e+00    
           4.80922014e-01     5.00564992e-01     0.00000000e+00    
           5.25367022e-01     4.88312006e-01     0.00000000e+00    
           5.09521008e-01     4.88312006e-01     0.00000000e+00    
           4.65243995e-01     5.34618974e-01     0.00000000e+00    
           4.65243995e-01     4.66010004e-01     0.00000000e+00    
           5.33852994e-01     4.66010004e-01     0.00000000e+00    
           5.33852994e-01     5.34618974e-01     0.00000000e+00    
           5.21338999e-01     5.13502657e-01     0.00000000e+00    
           5.20626605e-01     5.15222490e-01     0.00000000e+00    
           5.19493401e-01     5.16699374e-01     0.00000000e+00    
           5.18016517e-01     5.17832637e-01     0.00000000e+00    
           5.16296625e-01     5.18545032e-01     0.00000000e+00    
           5.14451027e-01     5.18787980e-01     0.00000000e+00    
           5.12605369e-01     5.18545032e-01     0.00000000e+00    
           5.10885477e-01     5.17832637e-01     0.00000000e+00    
           5.09408593e-01     5.16699374e-01     0.00000000e+00    
           5.08275390e-01     5.15222490e-01     0.00000000e+00    
           5.07562995e-01     5.13502657e-01     0.00000000e+00    
           5.07562995e-01     5.09811342e-01     0.00000000e+00    
           5.08275390e-01     5.08091509e-01     0.00000000e+00    
           5.09408593e-01     5.06614625e-01     0.00000000e+00    
           5.10885477e-01     5.05481362e-01     0.00000000e+00    
           5.12605369e-01     5.04768968e-01     0.00000000e+00    
           5.14451027e-01     5.04526019e-01     0.00000000e+00    
           5.16296625e-01     5.04768968e-01     0.00000000e+00    
           5.18016517e-01     5.05481362e-01     0.00000000e+00    
           5.19493401e-01     5.06614625e-01     0.00000000e+00    
           5.20626605e-01     5.08091509e-01     0.00000000e+00    
           5.21338999e-01     5.09811342e-01     0.00000000e+00    
           4.66931671e-01     5.04409373e-01     0.00000000e+00    
           4.68693614e-01     5.04328012e-01     0.00000000e+00    
           4.70421344e-01     5.04682958e-01     0.00000000e+00    
           4.72008497e-01     5.05452335e-01     0.00000000e+00    
           4.73357379e-01     5.06588817e-01     0.00000000e+00    
           4.74384934e-01     5.08022368e-01     0.00000000e+00    
           4.75027919e-01     5.09664834e-01     0.00000000e+00    
           4.75028187e-01     5.13165236e-01     0.00000000e+00    
           4.74385172e-01     5.14807761e-01     0.00000000e+00    
           4.73357558e-01     5.16241372e-01     0.00000000e+00    
           4.72008646e-01     5.17377913e-01     0.00000000e+00    
           4.70421433e-01     5.18147290e-01     0.00000000e+00    
           4.68693614e-01     5.18502235e-01     0.00000000e+00    
           4.66931641e-01     5.18420875e-01     0.00000000e+00    
           5.32303810e-01     5.16964078e-01     0.00000000e+00    
           5.31043947e-01     5.15658796e-01     0.00000000e+00    
           5.30155540e-01     5.14077127e-01     0.00000000e+00    
           5.29696345e-01     5.12322068e-01     0.00000000e+00    
           5.29696345e-01     5.10507941e-01     0.00000000e+00    
           5.30155540e-01     5.08752882e-01     0.00000000e+00    
           5.31043947e-01     5.07171214e-01     0.00000000e+00    
           5.32303810e-01     5.05865932e-01     0.00000000e+00    
           4.68517244e-01     5.32760799e-01     0.00000000e+00    
           4.68509018e-01     5.30844629e-01     0.00000000e+00    
           4.68960851e-01     5.28982460e-01     0.00000000e+00    
           4.69846308e-01     5.27283132e-01     0.00000000e+00    
           4.71113682e-01     5.25845945e-01     0.00000000e+00    
           4.72688884e-01     5.24754822e-01     0.00000000e+00    
           4.74479854e-01     5.24073541e-01     0.00000000e+00    
           4.78284091e-01     5.24073601e-01     0.00000000e+00    
           4.80075032e-01     5.24754822e-01     0.00000000e+00    
           4.81650203e-01     5.25845885e-01     0.00000000e+00    
           4.82917547e-01     5.27283013e-01     0.00000000e+00    
           4.83803004e-01     5.28982282e-01     0.00000000e+00    
           4.84254897e-01     5.30844331e-01     0.00000000e+00    
           4.84246761e-01     5.32760441e-01     0.00000000e+00    
           4.82887864e-01     4.67691004e-01     0.00000000e+00    
           4.81620818e-01     4.69110936e-01     0.00000000e+00    
           4.80051905e-01     4.70188022e-01     0.00000000e+00    
           4.78271484e-01     4.70860153e-01     0.00000000e+00    
           4.76382166e-01     4.71088618e-01     0.00000000e+00    
           4.74492878e-01     4.70860243e-01     0.00000000e+00    
           4.72712427e-01     4.70188200e-01     0.00000000e+00    
           4.71143454e-01     4.69111174e-01     0.00000000e+00    
           4.69876349e-01     4.67691302e-01     0.00000000e+00    
           4.88103986e-01     5.33086061e-01     0.00000000e+00    
           4.87431526e-01     5.31323195e-01     0.00000000e+00    
           4.87231195e-01     5.29447019e-01     0.00000000e+00    
           4.87516224e-01     5.27581930e-01     0.00000000e+00    
           4.88267750e-01     5.25851250e-01     0.00000000e+00    
           4.89436030e-01     5.24369657e-01     0.00000000e+00    
           4.90943670e-01     5.23235261e-01     0.00000000e+00    
           4.92690891e-01     5.22523046e-01     0.00000000e+00    
           4.96432930e-01     5.22523701e-01     0.00000000e+00    
           4.98180002e-01     5.23235798e-01     0.00000000e+00    
           4.99687493e-01     5.24370134e-01     0.00000000e+00    
           5.00855684e-01     5.25851607e-01     0.00000000e+00    
           5.01607120e-01     5.27582109e-01     0.00000000e+00    
           5.01892149e-01     5.29447079e-01     0.00000000e+00    
           5.01691818e-01     5.31323016e-01     0.00000000e+00    
           5.01019418e-01     5.33085763e-01     0.00000000e+00    
           4.98371124e-01     4.67269689e-01     0.00000000e+00    
           4.96539861e-01     4.68064904e-01     0.00000000e+00    
           4.94562000e-01     4.68336672e-01     0.00000000e+00    
           4.92584139e-01     4.68064904e-01     0.00000000e+00    
           4.90752876e-01     4.67269689e-01     0.00000000e+00    
           5.32269001e-01     4.75995690e-01     0.00000000e+00    
           5.31541944e-01     4.77750987e-01     0.00000000e+00    
           5.30385315e-01     4.79258329e-01     0.00000000e+00    
           5.28877974e-01     4.80414927e-01     0.00000000e+00    
[...]
      <PointData>
        <DataArray type="Float32" Name="Displacement" NumberOfComponents="3">
           7.34751578e-04     6.45673659e-04     0.00000000e+00    
           7.15620932e-04     6.38193276e-04     0.00000000e+00    
          -5.50588084e-06     6.62436301e-04     0.00000000e+00    
          -1.30373746e-06     6.44598913e-04     0.00000000e+00    
           1.13254982e-05     6.58291101e-04     0.00000000e+00    
           9.48696281e-04     6.44598913e-04     0.00000000e+00    
           9.44494095e-04     6.62436301e-04     0.00000000e+00    
           1.45723185e-04     9.30141017e-04     0.00000000e+00    
           1.25952603e-04     9.39316698e-04     0.00000000e+00    
           1.29666805e-04     9.19190585e-04     0.00000000e+00    
           1.25952603e-04    -1.06833186e-05     0.00000000e+00    
           1.45723185e-04    -1.98590114e-05     0.00000000e+00    
           3.46567482e-04     8.93074553e-04     0.00000000e+00    
           3.30312585e-04     8.98914703e-04     0.00000000e+00    
           3.31380899e-04     8.80187785e-04     0.00000000e+00    
           3.30312585e-04    -5.10852697e-05     0.00000000e+00    
           3.46567482e-04    -5.69254735e-05     0.00000000e+00    
           8.74709629e-04     1.42799603e-04     0.00000000e+00    
           8.54995917e-04     1.47539220e-04     0.00000000e+00    
           8.71420722e-04     8.17086839e-04     0.00000000e+00    
           8.74034245e-04     8.31198238e-04     0.00000000e+00    
           8.52859754e-04     8.26772477e-04     0.00000000e+00    
          -7.59657632e-05     8.31198238e-04     0.00000000e+00    
          -7.85792872e-05     8.17086839e-04     0.00000000e+00    
           2.14000800e-04     7.54232169e-04     0.00000000e+00    
           1.93389220e-04     7.60318653e-04     0.00000000e+00    
           6.81744015e-04     8.35247163e-04     0.00000000e+00    
           6.62403356e-04     8.26385396e-04     0.00000000e+00    
           4.82729200e-04     3.11691954e-04     0.00000000e+00    
           4.63203469e-04     3.04656947e-04     0.00000000e+00    
           7.87507597e-05     1.85682482e-04     0.00000000e+00    
           7.91475395e-05     1.74348461e-04     0.00000000e+00    
           9.74417926e-05     1.80668532e-04     0.00000000e+00    
           1.02914753e-03     1.74348461e-04     0.00000000e+00    
           1.02875079e-03     1.85682482e-04     0.00000000e+00    
           9.92290879e-05     4.65631660e-04     0.00000000e+00    
           7.92524515e-05     4.63755103e-04     0.00000000e+00    
           2.48618657e-04     2.08670608e-04     0.00000000e+00    
           2.27808545e-04     1.93460815e-04     0.00000000e+00    
           5.01493632e-04     4.18469746e-04     0.00000000e+00    
           4.81704774e-04     4.34891408e-04     0.00000000e+00    
           8.42013513e-04     5.42815251e-04     0.00000000e+00    
           8.20444431e-04     5.42550872e-04     0.00000000e+00    
           2.73255020e-04     5.02819079e-04     0.00000000e+00    
           2.52977537e-04     5.14391053e-04     0.00000000e+00    
           7.21827906e-04     3.61804588e-04     0.00000000e+00    
           6.99356722e-04     3.51243973e-04     0.00000000e+00    
           0.00000000e+00     9.50000016e-04     0.00000000e+00    
           0.00000000e+00     0.00000000e+00     0.00000000e+00    
           9.50000016e-04     0.00000000e+00     0.00000000e+00    
           9.50000016e-04     9.50000016e-04     0.00000000e+00    
           7.33227585e-04     6.49291673e-04     0.00000000e+00    
           7.31341483e-04     6.51506358e-04     0.00000000e+00    
           7.29007588e-04     6.53045368e-04     0.00000000e+00    
           7.26451573e-04     6.53879077e-04     0.00000000e+00    
           7.23642006e-04     6.53815165e-04     0.00000000e+00    
           7.21047109e-04     6.52871211e-04     0.00000000e+00    
           7.19354081e-04     6.51455601e-04     0.00000000e+00    
           7.17902149e-04     6.49737078e-04     0.00000000e+00    
           7.16341077e-04     6.47477864e-04     0.00000000e+00    
           7.15235074e-04     6.44341868e-04     0.00000000e+00    
           7.15007482e-04     6.41221355e-04     0.00000000e+00    
           7.16885494e-04     6.35315664e-04     0.00000000e+00    
           7.18921307e-04     6.33438467e-04     0.00000000e+00    
           7.21128366e-04     6.32241543e-04     0.00000000e+00    
           7.23506790e-04     6.31652365e-04     0.00000000e+00    
           7.26299128e-04     6.31675706e-04     0.00000000e+00    
           7.29631807e-04     6.32388517e-04     0.00000000e+00    
           7.32697023e-04     6.34093769e-04     0.00000000e+00    
           7.34524510e-04     6.36373297e-04     0.00000000e+00    
           7.35189416e-04     6.38484082e-04     0.00000000e+00    
           7.35294016e-04     6.40498998e-04     0.00000000e+00    
           7.35035224e-04     6.42732717e-04     0.00000000e+00    
           1.87168712e-06     6.43693842e-04     0.00000000e+00    
           4.91743731e-06     6.44477084e-04     0.00000000e+00    
           6.81991287e-06     6.45692460e-04     0.00000000e+00    
           8.51520235e-06     6.47229434e-04     0.00000000e+00    
           1.01316027e-05     6.49425259e-04     0.00000000e+00    
           1.13198521e-05     6.52163872e-04     0.00000000e+00    
           1.17186837e-05     6.55487296e-04     0.00000000e+00    
           1.01950018e-05     6.60423597e-04     0.00000000e+00    
           8.88067552e-06     6.61998230e-04     0.00000000e+00    
           7.05560797e-06     6.63531711e-04     0.00000000e+00    
           4.70088116e-06     6.64686493e-04     0.00000000e+00    
           1.96674091e-06     6.65241270e-04     0.00000000e+00    
          -1.21978269e-06     6.65168220e-04     0.00000000e+00    
          -3.87093769e-06     6.63841260e-04     0.00000000e+00    
           9.43547289e-04     6.60814694e-04     0.00000000e+00    
           9.42962128e-04     6.59053389e-04     0.00000000e+00    
           9.42151179e-04     6.56176126e-04     0.00000000e+00    
           9.41951817e-04     6.52915507e-04     0.00000000e+00    
           9.42830811e-04     6.49594294e-04     0.00000000e+00    
           9.44114465e-04     6.47453184e-04     0.00000000e+00    
           9.45418200e-04     6.46332395e-04     0.00000000e+00    
           9.46917920e-04     6.45452994e-04     0.00000000e+00    
           1.23757374e-04     9.36280296e-04     0.00000000e+00    
           1.22659520e-04     9.33365023e-04     0.00000000e+00    
           1.22099285e-04     9.30898474e-04     0.00000000e+00    
           1.21977406e-04     9.28252644e-04     0.00000000e+00    
           1.22651822e-04     9.25497618e-04     0.00000000e+00    
           1.24371829e-04     9.22786770e-04     0.00000000e+00    
           1.26924468e-04     9.20556486e-04     0.00000000e+00    
           1.32410772e-04     9.18426667e-04     0.00000000e+00    
           1.34613030e-04     9.18073347e-04     0.00000000e+00    
           1.37014402e-04     9.18184523e-04     0.00000000e+00    
           1.39838201e-04     9.18867590e-04     0.00000000e+00    
           1.42592340e-04     9.21159284e-04     0.00000000e+00    
           1.44396196e-04     9.23769199e-04     0.00000000e+00    
           1.45567494e-04     9.26566077e-04     0.00000000e+00    
           1.45104830e-04    -1.65022466e-05     0.00000000e+00    
           1.43986661e-04    -1.35349283e-05     0.00000000e+00    
           1.42528763e-04    -1.11929694e-05     0.00000000e+00    
           1.40457487e-04    -9.13338772e-06     0.00000000e+00    
           1.38192190e-04    -8.05626132e-06     0.00000000e+00    
           1.36122515e-04    -7.36015681e-06     0.00000000e+00    
           1.34000060e-04    -6.93119136e-06     0.00000000e+00    
           1.31587556e-04    -7.20319395e-06     0.00000000e+00    
           1.28507105e-04    -8.45496106e-06     0.00000000e+00    
           3.27797141e-04     8.96859041e-04     0.00000000e+00    
           3.25998786e-04     8.94482248e-04     0.00000000e+00    
           3.24928551e-04     8.91977514e-04     0.00000000e+00    
           3.24518507e-04     8.88875045e-04     0.00000000e+00    
           3.25343310e-04     8.86180555e-04     0.00000000e+00    
           3.26141861e-04     8.84436129e-04     0.00000000e+00    
           3.27209593e-04     8.82831635e-04     0.00000000e+00    
           3.28583526e-04     8.81410495e-04     0.00000000e+00    
           3.34954064e-04     8.79677129e-04     0.00000000e+00    
           3.38464859e-04     8.80155771e-04     0.00000000e+00    
           3.41364736e-04     8.81347398e-04     0.00000000e+00    
           3.43424064e-04     8.82622146e-04     0.00000000e+00    
           3.44833301e-04     8.83752422e-04     0.00000000e+00    
           3.46145942e-04     8.85131827e-04     0.00000000e+00    
           3.47032881e-04     8.87080445e-04     0.00000000e+00    
           3.47300229e-04     8.89818068e-04     0.00000000e+00    
           3.44759814e-04    -5.40052279e-05     0.00000000e+00    
           3.42217856e-04    -5.17063891e-05     0.00000000e+00    
           3.39344901e-04    -5.01928007e-05     0.00000000e+00    
           3.36250727e-04    -4.96498033e-05     0.00000000e+00    
           3.33364005e-04    -4.99206144e-05     0.00000000e+00    
           8.74854450e-04     1.44893973e-04     0.00000000e+00    
           8.74637801e-04     1.46741120e-04     0.00000000e+00    
           8.73934361e-04     1.48855834e-04     0.00000000e+00    
           8.71444179e-04     1.51525921e-04     0.00000000e+00    
           8.68181698e-04     1.53369532e-04     0.00000000e+00    
           8.65409093e-04     1.53953777e-04     0.00000000e+00    
           8.63465597e-04     1.54499561e-04     0.00000000e+00    
           8.61657318e-04     1.54508249e-04     0.00000000e+00    
           8.60077096e-04     1.54169989e-04     0.00000000e+00    
           8.58021143e-04     1.53097659e-04     0.00000000e+00    
           8.56086495e-04     1.50906213e-04     0.00000000e+00    
           8.54605285e-04     1.44328966e-04     0.00000000e+00    
           8.55236023e-04     1.40812859e-04     0.00000000e+00    
           8.56633938e-04     1.37989395e-04     0.00000000e+00    
           8.58478248e-04     1.35932249e-04     0.00000000e+00    
           8.60455562e-04     1.34699600e-04     0.00000000e+00    
           8.62327463e-04     1.33887443e-04     0.00000000e+00    
           8.64364090e-04     1.33424357e-04     0.00000000e+00    
           8.66803864e-04     1.33588299e-04     0.00000000e+00    
           8.69675656e-04     1.34855014e-04     0.00000000e+00    
           8.72193603e-04     1.37266616e-04     0.00000000e+00    
           8.74019170e-04     1.40089032e-04     0.00000000e+00    
           8.72388657e-04     8.33499245e-04     0.00000000e+00    
           8.70014774e-04     8.35354091e-04     0.00000000e+00    
           8.67340772e-04     8.36561143e-04     0.00000000e+00    
           8.64937552e-04     8.36815219e-04     0.00000000e+00    
           8.62582005e-04     8.36705731e-04     0.00000000e+00    
           8.59680469e-04     8.35851242e-04     0.00000000e+00    
           8.56813975e-04     8.33560247e-04     0.00000000e+00    
           8.54769663e-04     8.31068610e-04     0.00000000e+00    
           8.53575417e-04     8.28869815e-04     0.00000000e+00    
           8.52579193e-04     8.24093295e-04     0.00000000e+00    
           8.53283680e-04     8.21244786e-04     0.00000000e+00    
           8.54747137e-04     8.18683940e-04     0.00000000e+00    
           8.56820378e-04     8.16746731e-04     0.00000000e+00    
           8.59254622e-04     8.15281412e-04     0.00000000e+00    
           8.62662739e-04     8.14379018e-04     0.00000000e+00    
           8.65741400e-04     8.14492116e-04     0.00000000e+00    
           8.67949740e-04     8.14895553e-04     0.00000000e+00    
           8.69784039e-04     8.15798994e-04     0.00000000e+00    
          -7.68446553e-05     8.19005247e-04     0.00000000e+00    
          -7.54990397e-05     8.21761845e-04     0.00000000e+00    
          -7.48318489e-05     8.24559189e-04     0.00000000e+00    
          -7.48930543e-05     8.27151875e-04     0.00000000e+00    
          -7.52248452e-05     8.29109224e-04     0.00000000e+00    
           2.14486558e-04     7.57561938e-04     0.00000000e+00    
           2.14092928e-04     7.60759693e-04     0.00000000e+00    
           2.13586201e-04     7.62811513e-04     0.00000000e+00    
           2.12936211e-04     7.64734054e-04     0.00000000e+00    
           2.11596634e-04     7.66673184e-04     0.00000000e+00    
           2.09048623e-04     7.68558704e-04     0.00000000e+00    
           2.06054392e-04     7.69196893e-04     0.00000000e+00    
           2.03625663e-04     7.69326405e-04     0.00000000e+00    
           2.01383504e-04     7.68991245e-04     0.00000000e+00    
           1.99351940e-04     7.68295256e-04     0.00000000e+00    
           1.96633875e-04     7.66452227e-04     0.00000000e+00    
           1.94674285e-04     7.63162388e-04     0.00000000e+00    
           1.92903201e-04     7.57507456e-04     0.00000000e+00    
           1.92886451e-04     7.55097135e-04     0.00000000e+00    
           1.93499742e-04     7.52446475e-04     0.00000000e+00    
           1.95267436e-04     7.49813044e-04     0.00000000e+00    
           1.97628193e-04     7.47912389e-04     0.00000000e+00    
           2.00127382e-04     7.46736419e-04     0.00000000e+00    
           2.01924136e-04     7.46062608e-04     0.00000000e+00    
           2.03643183e-04     7.45601486e-04     0.00000000e+00    
           2.05882709e-04     7.45714584e-04     0.00000000e+00    
           2.08382698e-04     7.46640028e-04     0.00000000e+00    
           2.10838756e-04     7.48574908e-04     0.00000000e+00    
           2.12767249e-04     7.51197978e-04     0.00000000e+00    
           6.80166471e-04     8.37314292e-04     0.00000000e+00    
           6.77629665e-04     8.39468325e-04     0.00000000e+00    
           6.74448500e-04     8.40766297e-04     0.00000000e+00    
           6.71091839e-04     8.41059547e-04     0.00000000e+00    
           6.67598390e-04     8.40327702e-04     0.00000000e+00    
           6.64429623e-04     8.38671927e-04     0.00000000e+00    
           6.61934726e-04     8.36224644e-04     0.00000000e+00    
           6.60612423e-04     8.33289174e-04     0.00000000e+00    
           6.60238846e-04     8.30443401e-04     0.00000000e+00    
           6.61042461e-04     8.28156597e-04     0.00000000e+00    
           6.64095394e-04     8.24899646e-04     0.00000000e+00    
           6.66294829e-04     8.23008944e-04     0.00000000e+00    
           6.69462606e-04     8.21455091e-04     0.00000000e+00    
           6.73394243e-04     8.20374175e-04     0.00000000e+00    
           6.76745956e-04     8.20909219e-04     0.00000000e+00    
           6.78920595e-04     8.22275644e-04     0.00000000e+00    
           6.80657919e-04     8.23991373e-04     0.00000000e+00    
           6.82629296e-04     8.26585339e-04     0.00000000e+00    
           6.83326856e-04     8.30122910e-04     0.00000000e+00    
           6.82943733e-04     8.33021826e-04     0.00000000e+00    
           4.81985422e-04     3.13550903e-04     0.00000000e+00    
           4.80682706e-04     3.15148180e-04     0.00000000e+00    
           4.78900416e-04     3.17002181e-04     0.00000000e+00    
           4.75888897e-04     3.18298960e-04     0.00000000e+00    
           4.73412249e-04     3.18428210e-04     0.00000000e+00    
           4.71504667e-04     3.17980855e-04     0.00000000e+00    
           4.69456107e-04     3.17074329e-04     0.00000000e+00    
           4.66922735e-04     3.15660844e-04     0.00000000e+00    
           4.64323268e-04     3.12853255e-04     0.00000000e+00    
           4.63026547e-04     3.09585273e-04     0.00000000e+00    
           4.62743075e-04     3.06712609e-04     0.00000000e+00    
           4.63817560e-04     3.03338224e-04     0.00000000e+00    
           4.64757672e-04     3.02018685e-04     0.00000000e+00    
           4.66079538e-04     3.00758751e-04     0.00000000e+00    
           4.68050304e-04     2.99560197e-04     0.00000000e+00    
           4.70690749e-04     2.98722589e-04     0.00000000e+00    
           4.73715540e-04     2.98629981e-04     0.00000000e+00    
           4.76628920e-04     2.99573498e-04     0.00000000e+00    
           4.79272625e-04     3.01258668e-04     0.00000000e+00    
           4.81510040e-04     3.03811074e-04     0.00000000e+00    
           4.82815230e-04     3.06613743e-04     0.00000000e+00    
           4.83171607e-04     3.09479627e-04     0.00000000e+00    
           8.09536941e-05     1.72626402e-04     0.00000000e+00    
           8.36765394e-05     1.70819141e-04     0.00000000e+00    
           8.66267146e-05     1.70008585e-04     0.00000000e+00    
           8.90449955e-05     1.70123909e-04     0.00000000e+00    
           9.10102754e-05     1.70567670e-04     0.00000000e+00    
           9.27635556e-05     1.71429623e-04     0.00000000e+00    
           9.50585018e-05     1.73084409e-04     0.00000000e+00    
           9.68133972e-05     1.76221525e-04     0.00000000e+00    
           9.74105642e-05     1.78738410e-04     0.00000000e+00    
           9.71186018e-05     1.82646952e-04     0.00000000e+00    
           9.61847836e-05     1.84970384e-04     0.00000000e+00    
           9.41520921e-05     1.87558471e-04     0.00000000e+00    
           9.15470227e-05     1.89428654e-04     0.00000000e+00    
           8.92748285e-05     1.90098392e-04     0.00000000e+00    
           8.74667967e-05     1.90307430e-04     0.00000000e+00    
           8.54308746e-05     1.90141800e-04     0.00000000e+00    
           8.32467267e-05     1.89414612e-04     0.00000000e+00    
           8.08494369e-05     1.87935846e-04     0.00000000e+00    
           1.02739013e-03     1.82671443e-04     0.00000000e+00    
           1.02703983e-03     1.79578987e-04     0.00000000e+00    
           1.02746906e-03     1.77517868e-04     0.00000000e+00    
           1.02817756e-03     1.75968467e-04     0.00000000e+00    
           9.86956729e-05     4.67460864e-04     0.00000000e+00    
           9.77371601e-05     4.69135062e-04     0.00000000e+00    
           9.62662452e-05     4.71069914e-04     0.00000000e+00    
           9.35538264e-05     4.72938700e-04     0.00000000e+00    
           9.02133324e-05     4.74114058e-04     0.00000000e+00    
           8.72701203e-05     4.74223431e-04     0.00000000e+00    
           8.50415527e-05     4.73633321e-04     0.00000000e+00    
           8.30934296e-05     4.72757907e-04     0.00000000e+00    
           8.10496276e-05     4.71065316e-04     0.00000000e+00    
           7.96540480e-05     4.68816434e-04     0.00000000e+00    
           7.91972489e-05     4.66298196e-04     0.00000000e+00    
           7.99784611e-05     4.60934389e-04     0.00000000e+00    
           8.15464009e-05     4.57890477e-04     0.00000000e+00    
           8.39900531e-05     4.55409056e-04     0.00000000e+00    
           8.63417590e-05     4.54207271e-04     0.00000000e+00    
           8.83758112e-05     4.53655957e-04     0.00000000e+00    
           9.02631145e-05     4.53533547e-04     0.00000000e+00    
           9.21319734e-05     4.53849905e-04     0.00000000e+00    
           9.42931729e-05     4.54881287e-04     0.00000000e+00    
           9.64139108e-05     4.56767099e-04     0.00000000e+00    