<?xml version="1.0"?>
<VTKFile type="UnstructuredGrid" version="0.1">
  <UnstructuredGrid>
    <Piece NumberOfPoints="1034" NumberOfCells="1614">
      <Points>
        <DataArray type="Float32" NumberOfComponents="3">
           5.21582007e-01     5.11657000e-01     0.00000000e+00    
           5.07319987e-01     5.11657000e-01     0.00000000e+00    
           4.65243995e-01     5.17907977e-01     0.00000000e+00    
           4.65243995e-01     5.04921973e-01     0.00000000e+00    
           4.75246996e-01     5.11415005e-01     0.00000000e+00    
           5.33852994e-01     5.04921973e-01     0.00000000e+00    
           5.33852994e-01     5.17907977e-01     0.00000000e+00    
           4.83779997e-01     5.34618974e-01     0.00000000e+00    
           4.68984991e-01     5.34618974e-01     0.00000000e+00    
           4.76381987e-01     5.23841977e-01     0.00000000e+00    
           4.68984991e-01     4.66010004e-01     0.00000000e+00    
           4.83779997e-01     4.66010004e-01     0.00000000e+00    
           4.99920011e-01     5.34618974e-01     0.00000000e+00    
           4.89203990e-01     5.34618974e-01     0.00000000e+00    
           4.94562000e-01     5.22280991e-01     0.00000000e+00    
           4.89203990e-01     4.66010004e-01     0.00000000e+00    
           4.99920011e-01     4.66010004e-01     0.00000000e+00    
           5.32517016e-01     4.74112004e-01     0.00000000e+00    
           5.17961025e-01     4.74112004e-01     0.00000000e+00    
           5.33852994e-01     5.19801974e-01     0.00000000e+00    
           5.33852994e-01     5.29603004e-01     0.00000000e+00    
           5.19536972e-01     5.24702013e-01     0.00000000e+00    
           4.65243995e-01     5.29603004e-01     0.00000000e+00    
           4.65243995e-01     5.19801974e-01     0.00000000e+00    
           4.92487997e-01     5.17117977e-01     0.00000000e+00    
           4.76904988e-01     5.17117977e-01     0.00000000e+00    
           5.17996013e-01     5.27033985e-01     0.00000000e+00    
           5.04473984e-01     5.27033985e-01     0.00000000e+00    
           5.08446991e-01     4.83435005e-01     0.00000000e+00    
           4.94414002e-01     4.83435005e-01     0.00000000e+00    
           4.65243995e-01     4.83101994e-01     0.00000000e+00    
           4.65243995e-01     4.74415004e-01     0.00000000e+00    
           4.78336990e-01     4.78758007e-01     0.00000000e+00    
           5.33852994e-01     4.74415004e-01     0.00000000e+00    
           5.33852994e-01     4.83101994e-01     0.00000000e+00    
           4.80668008e-01     4.95810986e-01     0.00000000e+00    
           4.66084987e-01     4.95810986e-01     0.00000000e+00    
           4.93930012e-01     4.79214013e-01     0.00000000e+00    
           4.78967011e-01     4.79214013e-01     0.00000000e+00    
           5.09284973e-01     4.97658014e-01     0.00000000e+00    
           4.95503992e-01     4.97658014e-01     0.00000000e+00    
           5.33011973e-01     5.01751006e-01     0.00000000e+00    
           5.17829001e-01     5.01751006e-01     0.00000000e+00    
           4.95451003e-01     5.00564992e-01     0.00000000e+00    
           4.80922014e-01     5.00564992e-01     0.00000000e+00    
           5.25367022e-01     4.88312006e-01     0.00000000e+00    
           5.09521008e-01     4.88312006e-01     0.00000000e+00    
           4.65243995e-01     5.34618974e-01     0.00000000e+00    
           4.65243995e-01     4.66010004e-01     0.00000000e+00    
           5.33852994e-01     4.66010004e-01     0.00000000e+00    
           5.33852994e-01     5.34618974e-01     0.00000000e+00    
           5.21338999e-01     5.13502657e-01     0.00000000e+00    
           5.20626605e-01     5.15222490e-01     0.00000000e+00    
           5.19493401e-01     5.16699374e-01     0.00000000e+00    
           5.18016517e-01     5.17832637e-01     0.00000000e+00    
           5.16296625e-01     5.18545032e-01     0.00000000e+00    
           5.14451027e-01     5.18787980e-01     0.00000000e+00    
           5.12605369e-01     5.18545032e-01     0.00000000e+00    
           5.10885477e-01     5.17832637e-01     0.00000000e+00    
           5.09408593e-01     5.16699374e-01     0.00000000e+00    
           5.08275390e-01     5.15222490e-01     0.00000000e+00    
           5.07562995e-01     5.13502657e-01     0.00000000e+00    
           5.07562995e-01     5.09811342e-01     0.00000000e+00    
           5.08275390e-01     5.08091509e-01     0.00000000e+00    
           5.09408593e-01     5.06614625e-01     0.00000000e+00    
           5.10885477e-01     5.05481362e-01     0.00000000e+00    
           5.12605369e-01     5.04768968e-01     0.00000000e+00    
           5.14451027e-01     5.04526019e-01     0.00000000e+00    
           5.16296625e-01     5.04768968e-01     0.00000000e+00    
           5.18016517e-01     5.05481362e-01     0.00000000e+00    
           5.19493401e-01     5.06614625e-01     0.00000000e+00    
           5.20626605e-01     5.08091509e-01     0.00000000e+00    
           5.21338999e-01     5.09811342e-01     0.00000000e+00    
           4.66931671e-01     5.04409373e-01     0.00000000e+00    
           4.68693614e-01     5.04328012e-01     0.00000000e+00    
           4.70421344e-01     5.04682958e-01     0.00000000e+00    
           4.72008497e-01     5.05452335e-01     0.00000000e+00    
           4.73357379e-01     5.06588817e-01     0.00000000e+00    
           4.74384934e-01     5.08022368e-01     0.00000000e+00    
           4.75027919e-01     5.09664834e-01     0.00000000e+00    
           4.75028187e-01     5.13165236e-01     0.00000000e+00    
           4.74385172e-01     5.14807761e-01     0.00000000e+00    
           4.73357558e-01     5.16241372e-01     0.00000000e+00    
           4.72008646e-01     5.17377913e-01     0.00000000e+00    
           4.70421433e-01     5.18147290e-01     0.00000000e+00    
           4.68693614e-01     5.18502235e-01     0.00000000e+00    
           4.66931641e-01     5.18420875e-01     0.00000000e+00    
           5.32303810e-01     5.16964078e-01     0.00000000e+00    
           5.31043947e-01     5.15658796e-01     0.00000000e+00    
           5.30155540e-01     5.14077127e-01     0.00000000e+00    
           5.29696345e-01     5.12322068e-01     0.00000000e+00    
           5.29696345e-01     5.10507941e-01     0.00000000e+00    
           5.30155540e-01     5.08752882e-01     0.00000000e+00    
           5.31043947e-01     5.07171214e-01     0.00000000e+00    
           5.32303810e-01     5.05865932e-01     0.00000000e+00    
           4.68517244e-01     5.32760799e-01     0.00000000e+00    
           4.68509018e-01     5.30844629e-01     0.00000000e+00    
           4.68960851e-01     5.28982460e-01     0.00000000e+00    
           4.69846308e-01     5.27283132e-01     0.00000000e+00    
           4.71113682e-01     5.25845945e-01     0.00000000e+00    
           4.72688884e-01     5.24754822e-01     0.00000000e+00    
           4.74479854e-01     5.24073541e-01     0.00000000e+00    
           4.78284091e-01     5.24073601e-01     0.00000000e+00    
           4.80075032e-01     5.24754822e-01     0.00000000e+00    
           4.81650203e-01     5.25845885e-01     0.00000000e+00    
           4.82917547e-01     5.27283013e-01     0.00000000e+00    
           4.83803004e-01     5.28982282e-01     0.00000000e+00    
           4.84254897e-01     5.30844331e-01     0.00000000e+00    
           4.84246761e-01     5.32760441e-01     0.00000000e+00    
           4.82887864e-01     4.67691004e-01     0.00000000e+00    
           4.81620818e-01     4.69110936e-01     0.00000000e+00    
           4.80051905e-01     4.70188022e-01     0.00000000e+00    
           4.78271484e-01     4.70860153e-01     0.00000000e+00    
           4.76382166e-01     4.71088618e-01     0.00000000e+00    
           4.74492878e-01     4.70860243e-01     0.00000000e+00    
           4.72712427e-01     4.70188200e-01     0.00000000e+00    
           4.71143454e-01     4.69111174e-01     0.00000000e+00    
           4.69876349e-01     4.67691302e-01     0.00000000e+00    
           4.88103986e-01     5.33086061e-01     0.00000000e+00    
           4.87431526e-01     5.31323195e-01     0.00000000e+00    
           4.87231195e-01     5.29447019e-01     0.00000000e+00    
           4.87516224e-01     5.27581930e-01     0.00000000e+00    
           4.88267750e-01     5.25851250e-01     0.00000000e+00    
           4.89436030e-01     5.24369657e-01     0.00000000e+00    
           4.90943670e-01     5.23235261e-01     0.00000000e+00    
           4.92690891e-01     5.22523046e-01     0.00000000e+00    
           4.96432930e-01     5.22523701e-01     0.00000000e+00    
           4.98180002e-01     5.23235798e-01     0.00000000e+00    
           4.99687493e-01     5.24370134e-01     0.00000000e+00    
           5.00855684e-01     5.25851607e-01     0.00000000e+00    
           5.01607120e-01     5.27582109e-01     0.00000000e+00    
           5.01892149e-01     5.29447079e-01     0.00000000e+00    
           5.01691818e-01     5.31323016e-01     0.00000000e+00    
           5.01019418e-01     5.33085763e-01     0.00000000e+00    
           4.98371124e-01     4.67269689e-01     0.00000000e+00    
           4.96539861e-01     4.68064904e-01     0.00000000e+00    
           4.94562000e-01     4.68336672e-01     0.00000000e+00    
           4.92584139e-01     4.68064904e-01     0.00000000e+00    
           4.90752876e-01     4.67269689e-01     0.00000000e+00    
           5.32269001e-01     4.75995690e-01     0.00000000e+00    
           5.31541944e-01     4.77750987e-01     0.00000000e+00    
           5.30385315e-01     4.79258329e-01     0.00000000e+00    
           5.28877974e-01     4.80414927e-01     0.00000000e+00    
[...]
      <PointData>
        <DataArray type="Float32" Name="Displacement" NumberOfComponents="3">
           3.03131121e-04     1.44072590e-04     0.00000000e+00    
           3.02563247e-04     2.00621784e-04     0.00000000e+00    
           3.27649468e-04     1.53753863e-04     0.00000000e+00    
           2.73189391e-04     1.45174898e-04     0.00000000e+00    
           3.01261811e-04     1.22097466e-04     0.00000000e+00    
           2.73189391e-04     1.45174898e-04     0.00000000e+00    
           3.27649468e-04     1.53753863e-04     0.00000000e+00    
           4.48528648e-04     1.91751198e-04     0.00000000e+00    
           4.49018233e-04     2.58026208e-04     0.00000000e+00    
           3.91113543e-04     2.20065209e-04     0.00000000e+00    
          -9.81773496e-07     3.30261973e-05     0.00000000e+00    
          -1.47135199e-06    -3.32488053e-05     0.00000000e+00    
           4.23510675e-04     1.84300879e-04     0.00000000e+00    
           4.24967351e-04     2.05364355e-04     0.00000000e+00    
           3.88738670e-04     1.87048558e-04     0.00000000e+00    
          -2.50326611e-05    -1.96356468e-05     0.00000000e+00    
          -2.64893297e-05    -4.06991239e-05     0.00000000e+00    
           8.25186362e-05     2.28539047e-05     0.00000000e+00    
           8.06186363e-05     8.32110018e-05     0.00000000e+00    
           3.66464839e-04     1.76287504e-04     0.00000000e+00    
           4.12413909e-04     1.83490309e-04     0.00000000e+00    
           3.91143170e-04     2.32218837e-04     0.00000000e+00    
           4.12413909e-04     1.83490309e-04     0.00000000e+00    
           3.66464839e-04     1.76287504e-04     0.00000000e+00    
           3.41203646e-04     1.41680022e-04     0.00000000e+00    
           3.38075944e-04     2.01071947e-04     0.00000000e+00    
           4.02869133e-04     2.05723452e-04     0.00000000e+00    
           4.04562306e-04     2.27550045e-04     0.00000000e+00    
           1.45521190e-04     7.44891149e-05     0.00000000e+00    
           1.40233955e-04     8.81091401e-05     0.00000000e+00    
           1.19367214e-04     6.66543274e-05     0.00000000e+00    
           8.72353630e-05     6.19074563e-05     0.00000000e+00    
           1.05469757e-04     2.81778593e-05     0.00000000e+00    
           8.72353630e-05     6.19074563e-05     0.00000000e+00    
           1.19367214e-04     6.66543274e-05     0.00000000e+00    
           2.19667767e-04     8.51254663e-05     0.00000000e+00    
           2.20443006e-04     1.15736650e-04     0.00000000e+00    
           1.17418400e-04     3.12667435e-05     0.00000000e+00    
           1.11850510e-04     4.82088726e-05     0.00000000e+00    
           2.16105516e-04     9.65366999e-05     0.00000000e+00    
           2.18501882e-04     1.17346957e-04     0.00000000e+00    
           2.51650490e-04     1.08219727e-04     0.00000000e+00    
           2.51132471e-04     1.51509361e-04     0.00000000e+00    
           2.25089781e-04     1.07637548e-04     0.00000000e+00    
           2.26976132e-04     1.27214240e-04     0.00000000e+00    
           1.78137852e-04     8.51619625e-05     0.00000000e+00    
           1.76763657e-04     1.31528766e-04     0.00000000e+00    
           4.49999992e-04     2.24999996e-04     0.00000000e+00    
           0.00000000e+00     0.00000000e+00     0.00000000e+00    
           0.00000000e+00     0.00000000e+00     0.00000000e+00    
           4.49999992e-04     2.24999996e-04     0.00000000e+00    
           3.12804099e-04     1.46560255e-04     0.00000000e+00    
           3.21757310e-04     1.50768348e-04     0.00000000e+00    
           3.29182978e-04     1.56219845e-04     0.00000000e+00    
           3.34557757e-04     1.62440614e-04     0.00000000e+00    
           3.37689853e-04     1.69691310e-04     0.00000000e+00    
           3.38709593e-04     1.77374022e-04     0.00000000e+00    
           3.37473786e-04     1.84797958e-04     0.00000000e+00    
           3.33744305e-04     1.91186293e-04     0.00000000e+00    
           3.27687303e-04     1.96187291e-04     0.00000000e+00    
           3.20159073e-04     1.99336908e-04     0.00000000e+00    
           3.11640120e-04     2.00899842e-04     0.00000000e+00    
           2.93460296e-04     1.98325273e-04     0.00000000e+00    
           2.84925278e-04     1.94515000e-04     0.00000000e+00    
           2.77702929e-04     1.89343904e-04     0.00000000e+00    
           2.72295496e-04     1.83417869e-04     0.00000000e+00    
           2.69171403e-04     1.76843663e-04     0.00000000e+00    
           2.68300297e-04     1.70013955e-04     0.00000000e+00    
           2.69239099e-04     1.63230521e-04     0.00000000e+00    
           2.71778117e-04     1.56727125e-04     0.00000000e+00    
           2.76096805e-04     1.50667271e-04     0.00000000e+00    
           2.83270580e-04     1.46292427e-04     0.00000000e+00    
           2.92878743e-04     1.43970232e-04     0.00000000e+00    
           2.72331148e-04     1.41426426e-04     0.00000000e+00    
           2.72376928e-04     1.36749644e-04     0.00000000e+00    
           2.73773301e-04     1.31715147e-04     0.00000000e+00    
           2.76974839e-04     1.27369203e-04     0.00000000e+00    
           2.81675020e-04     1.24200436e-04     0.00000000e+00    
           2.87559233e-04     1.22175261e-04     0.00000000e+00    
           2.94176221e-04     1.21621139e-04     0.00000000e+00    
           3.08082439e-04     1.23626218e-04     0.00000000e+00    
           3.14133416e-04     1.25956140e-04     0.00000000e+00    
           3.19362793e-04     1.29214255e-04     0.00000000e+00    
           3.23508517e-04     1.33315189e-04     0.00000000e+00    
           3.26658163e-04     1.38046715e-04     0.00000000e+00    
           3.28578986e-04     1.42984369e-04     0.00000000e+00    
           3.28818511e-04     1.48297884e-04     0.00000000e+00    
           3.23854649e-04     1.59068761e-04     0.00000000e+00    
           3.17529019e-04     1.62769153e-04     0.00000000e+00    
           3.09900264e-04     1.64372555e-04     0.00000000e+00    
           3.01794527e-04     1.64162615e-04     0.00000000e+00    
           2.93699384e-04     1.61832213e-04     0.00000000e+00    
           2.85776885e-04     1.57929564e-04     0.00000000e+00    
           2.79020605e-04     1.53255329e-04     0.00000000e+00    
           2.75118859e-04     1.48576335e-04     0.00000000e+00    
           4.38171090e-04     2.58434127e-04     0.00000000e+00    
           4.27513092e-04     2.56966421e-04     0.00000000e+00    
           4.17604286e-04     2.53850187e-04     0.00000000e+00    
           4.08971828e-04     2.49207194e-04     0.00000000e+00    
           4.01871861e-04     2.43089045e-04     0.00000000e+00    
           3.96293821e-04     2.35903455e-04     0.00000000e+00    
           3.92534828e-04     2.28105244e-04     0.00000000e+00    
           3.91925889e-04     2.11881357e-04     0.00000000e+00    
           3.95183160e-04     2.04006748e-04     0.00000000e+00    
           4.00902412e-04     1.97058485e-04     0.00000000e+00    
           4.08725318e-04     1.91623549e-04     0.00000000e+00    
           4.17571340e-04     1.88372185e-04     0.00000000e+00    
           4.27189050e-04     1.87405836e-04     0.00000000e+00    
           4.37689683e-04     1.88456164e-04     0.00000000e+00    
           8.81991946e-06    -2.79962915e-05     0.00000000e+00    
           1.75471741e-05    -2.11458682e-05     0.00000000e+00    
           2.40157933e-05    -1.34515421e-05     0.00000000e+00    
           2.79430278e-05    -5.50981849e-06     0.00000000e+00    
           2.91550023e-05     3.19335390e-06     0.00000000e+00    
           2.81961384e-05     1.16359925e-05     0.00000000e+00    
           2.42006827e-05     1.95623797e-05     0.00000000e+00    
           1.74886336e-05     2.59690205e-05     0.00000000e+00    
           8.80049174e-06     3.04687346e-05     0.00000000e+00    
           4.20642318e-04     2.06615994e-04     0.00000000e+00    
           4.15687216e-04     2.06654673e-04     0.00000000e+00    
           4.09973843e-04     2.05634293e-04     0.00000000e+00    
           4.03607875e-04     2.03321120e-04     0.00000000e+00    
           3.97130992e-04     1.99622227e-04     0.00000000e+00    
           3.91901413e-04     1.95100787e-04     0.00000000e+00    
           3.89069348e-04     1.91340776e-04     0.00000000e+00    
           3.88235465e-04     1.89031940e-04     0.00000000e+00    
           3.90024186e-04     1.84817138e-04     0.00000000e+00    
           3.92259331e-04     1.82729462e-04     0.00000000e+00    
           3.95425450e-04     1.81119394e-04     0.00000000e+00    
           3.99171142e-04     1.79981653e-04     0.00000000e+00    
           4.03289770e-04     1.79547351e-04     0.00000000e+00    
           4.08004009e-04     1.79595780e-04     0.00000000e+00    
           4.13161702e-04     1.80291507e-04     0.00000000e+00    
           4.18558717e-04     1.81768060e-04     0.00000000e+00    
          -2.23430925e-05    -3.72831855e-05     0.00000000e+00    
          -1.94796376e-05    -3.34547913e-05     0.00000000e+00    
          -1.81755677e-05    -2.96056387e-05     0.00000000e+00    
          -1.87999703e-05    -2.56630465e-05     0.00000000e+00    
          -2.12282994e-05    -2.21923547e-05     0.00000000e+00    
           9.17775760e-05     2.50146877e-05     0.00000000e+00    
           9.95592563e-05     2.83406862e-05     0.00000000e+00    
           1.06081447e-04     3.24876382e-05     0.00000000e+00    
           1.11796195e-04     3.83319602e-05     0.00000000e+00    
           1.16040996e-04     4.56965427e-05     0.00000000e+00    
           1.18087817e-04     5.39920511e-05     0.00000000e+00    
           1.18147706e-04     6.30763388e-05     0.00000000e+00    
           1.14917530e-04     7.11313696e-05     0.00000000e+00    
           1.08653112e-04     7.75597509e-05     0.00000000e+00    
           1.00204641e-04     8.17481341e-05     0.00000000e+00    
           9.05625348e-05     8.37004482e-05     0.00000000e+00    
           7.06400097e-05     8.08694967e-05     0.00000000e+00    
           6.14469973e-05     7.65265722e-05     0.00000000e+00    
           5.36409825e-05     7.05552957e-05     0.00000000e+00    
           4.78399088e-05     6.31673829e-05     0.00000000e+00    
           4.43897297e-05     5.47487980e-05     0.00000000e+00    
           4.33828209e-05     4.59748699e-05     0.00000000e+00    
           4.48526516e-05     3.78463410e-05     0.00000000e+00    
           4.88547812e-05     3.10600371e-05     0.00000000e+00    
           5.51454614e-05     2.61426012e-05     0.00000000e+00    
           6.32370211e-05     2.31393951e-05     0.00000000e+00    
           7.27036750e-05     2.19374106e-05     0.00000000e+00    
           4.18222713e-04     1.89205806e-04     0.00000000e+00    
           4.22486861e-04     1.96205699e-04     0.00000000e+00    
           4.24965197e-04     2.04191383e-04     0.00000000e+00    
           4.25277889e-04     2.12332510e-04     0.00000000e+00    
           4.23235731e-04     2.19655180e-04     0.00000000e+00    
           4.18893556e-04     2.25461743e-04     0.00000000e+00    
           4.13004251e-04     2.29322424e-04     0.00000000e+00    
           4.06382926e-04     2.31665632e-04     0.00000000e+00    
           3.99277080e-04     2.32532053e-04     0.00000000e+00    
           3.81952792e-04     2.30389836e-04     0.00000000e+00    
           3.72630282e-04     2.26899690e-04     0.00000000e+00    
           3.64549516e-04     2.21858718e-04     0.00000000e+00    
           3.58413294e-04     2.15962049e-04     0.00000000e+00    
           3.54554562e-04     2.09317790e-04     0.00000000e+00    
           3.52547329e-04     2.02310533e-04     0.00000000e+00    
           3.52484407e-04     1.94968845e-04     0.00000000e+00    
           3.54270014e-04     1.87529891e-04     0.00000000e+00    
           3.58919700e-04     1.81085095e-04     0.00000000e+00    
           3.74434429e-04     1.73904002e-04     0.00000000e+00    
           3.82801139e-04     1.73278633e-04     0.00000000e+00    
           3.91141919e-04     1.74198009e-04     0.00000000e+00    
           3.98981938e-04     1.76547270e-04     0.00000000e+00    
           4.06134815e-04     1.79646755e-04     0.00000000e+00    
           3.50694230e-04     1.44200152e-04     0.00000000e+00    
           3.59872414e-04     1.48925421e-04     0.00000000e+00    
           3.68237204e-04     1.54847890e-04     0.00000000e+00    
           3.73820541e-04     1.61163072e-04     0.00000000e+00    
           3.76959535e-04     1.66679834e-04     0.00000000e+00    
           3.77969438e-04     1.71982494e-04     0.00000000e+00    
           3.77622462e-04     1.78219911e-04     0.00000000e+00    
           3.75639938e-04     1.85118013e-04     0.00000000e+00    
           3.71213304e-04     1.91569692e-04     0.00000000e+00    
           3.64451844e-04     1.96971436e-04     0.00000000e+00    
           3.56062723e-04     2.00365772e-04     0.00000000e+00    
           3.47214926e-04     2.01415271e-04     0.00000000e+00    
           3.29364382e-04     1.99029077e-04     0.00000000e+00    
           3.21737694e-04     1.95834291e-04     0.00000000e+00    
           3.15107725e-04     1.91780156e-04     0.00000000e+00    
           3.09559633e-04     1.86190140e-04     0.00000000e+00    
           3.05374677e-04     1.79390816e-04     0.00000000e+00    
           3.02820932e-04     1.71650987e-04     0.00000000e+00    
           3.02533823e-04     1.63669116e-04     0.00000000e+00    
           3.04541230e-04     1.56541500e-04     0.00000000e+00    
           3.08949937e-04     1.50556749e-04     0.00000000e+00    
           3.15324985e-04     1.45900500e-04     0.00000000e+00    
           3.23088549e-04     1.42762292e-04     0.00000000e+00    
           3.31886666e-04     1.41280238e-04     0.00000000e+00    
           4.08102322e-04     2.06937664e-04     0.00000000e+00    
           4.13317146e-04     2.09078571e-04     0.00000000e+00    
           4.17498668e-04     2.11992257e-04     0.00000000e+00    
           4.20124939e-04     2.15282766e-04     0.00000000e+00    
           4.21156234e-04     2.18675646e-04     0.00000000e+00    
           4.20642580e-04     2.21926311e-04     0.00000000e+00    
           4.18807525e-04     2.24682837e-04     0.00000000e+00    
           4.15968942e-04     2.26627861e-04     0.00000000e+00    
           4.12419526e-04     2.27705328e-04     0.00000000e+00    
           4.08706925e-04     2.27687924e-04     0.00000000e+00    
           4.00023768e-04     2.27018390e-04     0.00000000e+00    
           3.95319599e-04     2.25658849e-04     0.00000000e+00    
           3.91165260e-04     2.23274459e-04     0.00000000e+00    
           3.87924316e-04     2.20074740e-04     0.00000000e+00    
           3.86023399e-04     2.15837557e-04     0.00000000e+00    
           3.85959778e-04     2.11266393e-04     0.00000000e+00    
           3.87663866e-04     2.07528603e-04     0.00000000e+00    
           3.90787056e-04     2.05305085e-04     0.00000000e+00    
           3.94252274e-04     2.04760348e-04     0.00000000e+00    
           3.98055854e-04     2.05105956e-04     0.00000000e+00    
           1.49801810e-04     7.55549554e-05     0.00000000e+00    
           1.53100133e-04     7.63799326e-05     0.00000000e+00    
           1.55862683e-04     7.77137320e-05     0.00000000e+00    
           1.58604904e-04     8.04660449e-05     0.00000000e+00    
           1.60461408e-04     8.44745737e-05     0.00000000e+00    
           1.60538722e-04     8.75047408e-05     0.00000000e+00    
           1.59296120e-04     8.91274321e-05     0.00000000e+00    
           1.56613751e-04     9.00784071e-05     0.00000000e+00    
           1.52976761e-04     9.02789543e-05     0.00000000e+00    
           1.48976513e-04     9.00173472e-05     0.00000000e+00    
           1.44571430e-04     8.93931428e-05     0.00000000e+00    
           1.36383955e-04     8.68831994e-05     0.00000000e+00    
           1.33672191e-04     8.56255865e-05     0.00000000e+00    
           1.31931316e-04     8.44202805e-05     0.00000000e+00    
           1.30270069e-04     8.27475960e-05     0.00000000e+00    
           1.29001652e-04     8.08020195e-05     0.00000000e+00    
           1.28382118e-04     7.87905665e-05     0.00000000e+00    
           1.29039618e-04     7.67603269e-05     0.00000000e+00    
           1.30813598e-04     7.49968167e-05     0.00000000e+00    
           1.33680500e-04     7.39277384e-05     0.00000000e+00    
           1.37265364e-04     7.34111745e-05     0.00000000e+00    
           1.41373792e-04     7.36534639e-05     0.00000000e+00    
           8.29259152e-05     5.90348791e-05     0.00000000e+00    
           7.90554186e-05     5.51456651e-05     0.00000000e+00    
           7.64897195e-05     5.01325994e-05     0.00000000e+00    
           7.55078217e-05     4.41445081e-05     0.00000000e+00    
           7.66925150e-05     3.82411890e-05     0.00000000e+00    
           8.07863908e-05     3.28454735e-05     0.00000000e+00    
           8.65823313e-05     2.92929217e-05     0.00000000e+00    
           9.30068054e-05     2.78007828e-05     0.00000000e+00    
           9.93770736e-05     2.75285784e-05     0.00000000e+00    
           1.11100970e-04     2.94789988e-05     0.00000000e+00    
           1.16485760e-04     3.16717596e-05     0.00000000e+00    
           1.21755780e-04     3.54074109e-05     0.00000000e+00    
           1.26218103e-04     4.03365957e-05     0.00000000e+00    
           1.29655295e-04     4.60953743e-05     0.00000000e+00    
           1.31090070e-04     5.16972141e-05     0.00000000e+00    
           1.30691231e-04     5.65626106e-05     0.00000000e+00    
           1.28438885e-04     6.07946276e-05     0.00000000e+00    
           1.24557409e-04     6.42538507e-05     0.00000000e+00    
           1.13054324e-04     6.78605793e-05     0.00000000e+00    
           1.06178763e-04     6.74281837e-05     0.00000000e+00    
           9.91556735e-05     6.61487793e-05     0.00000000e+00    
           9.26134380e-05     6.41095467e-05     0.00000000e+00    
           2.24347023e-04     8.69579744e-05     0.00000000e+00    
           2.28521400e-04     8.86682610e-05     0.00000000e+00    
           2.32389808e-04     9.08286020e-05     0.00000000e+00    
           2.36045977e-04     9.38952871e-05     0.00000000e+00    
           2.38713867e-04     9.76491865e-05     0.00000000e+00    
           2.39917485e-04     1.01934078e-04     0.00000000e+00    
           2.39617453e-04     1.06503445e-04     0.00000000e+00    
           2.37800472e-04     1.10444438e-04     0.00000000e+00    
           2.34817446e-04     1.13240880e-04     0.00000000e+00    
           2.30993828e-04     1.14965267e-04     0.00000000e+00    
           2.26169257e-04     1.15702940e-04     0.00000000e+00    
           2.14383748e-04     1.14545961e-04     0.00000000e+00    
           2.08689933e-04     1.11994304e-04     0.00000000e+00    
           2.03671036e-04     1.08249937e-04     0.00000000e+00    
           1.99759568e-04     1.03431717e-04     0.00000000e+00    
           1.97269939e-04     9.82028214e-05     0.00000000e+00    
           1.96366804e-04     9.34872369e-05     0.00000000e+00    
           1.97246482e-04     8.96947531e-05     0.00000000e+00    
           1.99928065e-04     8.67787749e-05     0.00000000e+00    
           2.03976088e-04     8.46849871e-05     0.00000000e+00    