<?xml version="1.0"?>
<VTKFile type="UnstructuredGrid" version="0.1">
  <UnstructuredGrid>
    <Piece NumberOfPoints="1034" NumberOfCells="1614">
      <Points>
        <DataArray type="Float32" NumberOfComponents="3">
           5.21582007e-01     5.11657000e-01     0.00000000e+00    
           5.07319987e-01     5.11657000e-01     0.00000000e+00    
           4.65243995e-01     5.17907977e-01     0.00000000e+00    
           4.65243995e-01     5.04921973e-01     0.00000000e+00    
           4.75246996e-01     5.11415005e-01     0.00000000e+00    
           5.33852994e-01     5.04921973e-01     0.00000000e+00    
           5.33852994e-01     5.17907977e-01     0.00000000e+00    
           4.83779997e-01     5.34618974e-01     0.00000000e+00    
           4.68984991e-01     5.34618974e-01     0.00000000e+00    
           4.76381987e-01     5.23841977e-01     0.00000000e+00    
           4.68984991e-01     4.66010004e-01     0.00000000e+00    
           4.83779997e-01     4.66010004e-01     0.00000000e+00    
           4.99920011e-01     5.34618974e-01     0.00000000e+00    
           4.89203990e-01     5.34618974e-01     0.00000000e+00    
           4.94562000e-01     5.22280991e-01     0.00000000e+00    
           4.89203990e-01     4.66010004e-01     0.00000000e+00    
           4.99920011e-01     4.66010004e-01     0.00000000e+00    
           5.32517016e-01     4.74112004e-01     0.00000000e+00    
           5.17961025e-01     4.74112004e-01     0.00000000e+00    
           5.33852994e-01     5.19801974e-01     0.00000000e+00    
           5.33852994e-01     5.29603004e-01     0.00000000e+00    
           5.19536972e-01     5.24702013e-01     0.00000000e+00    
           4.65243995e-01     5.29603004e-01     0.00000000e+00    
           4.65243995e-01     5.19801974e-01     0.00000000e+00    
           4.92487997e-01     5.17117977e-01     0.00000000e+00    
           4.76904988e-01     5.17117977e-01     0.00000000e+00    
           5.17996013e-01     5.27033985e-01     0.00000000e+00    
           5.04473984e-01     5.27033985e-01     0.00000000e+00    
           5.08446991e-01     4.83435005e-01     0.00000000e+00    
           4.94414002e-01     4.83435005e-01     0.00000000e+00    
           4.65243995e-01     4.83101994e-01     0.00000000e+00    
           4.65243995e-01     4.74415004e-01     0.00000000e+00    
           4.78336990e-01     4.78758007e-01     0.00000000e+00    
           5.33852994e-01     4.74415004e-01     0.00000000e+00    
           5.33852994e-01     4.83101994e-01     0.00000000e+00    
           4.80668008e-01     4.95810986e-01     0.00000000e+00    
           4.66084987e-01     4.95810986e-01     0.00000000e+00    
           4.93930012e-01     4.79214013e-01     0.00000000e+00    
           4.78967011e-01     4.79214013e-01     0.00000000e+00    
           5.09284973e-01     4.97658014e-01     0.00000000e+00    
           4.95503992e-01     4.97658014e-01     0.00000000e+00    
           5.33011973e-01     5.01751006e-01     0.00000000e+00    
           5.17829001e-01     5.01751006e-01     0.00000000e+00    
           4.95451003e-01     5.00564992e-01     0.00000000e+00    
           4.80922014e-01     5.00564992e-01     0.00000000e+00    
           5.25367022e-01     4.88312006e-01     0.00000000e+00    
           5.09521008e-01     4.88312006e-01     0.00000000e+00    
           4.65243995e-01     5.34618974e-01     0.00000000e+00    
           4.65243995e-01     4.66010004e-01     0.00000000e+00    
           5.33852994e-01     4.66010004e-01     0.00000000e+00    
           5.33852994e-01     5.34618974e-01     0.00000000e+00    
           5.21338999e-01     5.13502657e-01     0.00000000e+00    
           5.20626605e-01     5.15222490e-01     0.00000000e+00    
           5.19493401e-01     5.16699374e-01     0.00000000e+00    
           5.18016517e-01     5.17832637e-01     0.00000000e+00    
           5.16296625e-01     5.18545032e-01     0.00000000e+00    
           5.14451027e-01     5.18787980e-01     0.00000000e+00    
           5.12605369e-01     5.18545032e-01     0.00000000e+00    
           5.10885477e-01     5.17832637e-01     0.00000000e+00    
           5.09408593e-01     5.16699374e-01     0.00000000e+00    
           5.08275390e-01     5.15222490e-01     0.00000000e+00    
           5.07562995e-01     5.13502657e-01     0.00000000e+00    
           5.07562995e-01     5.09811342e-01     0.00000000e+00    
           5.08275390e-01     5.08091509e-01     0.00000000e+00    
           5.09408593e-01     5.06614625e-01     0.00000000e+00    
           5.10885477e-01     5.05481362e-01     0.00000000e+00    
           5.12605369e-01     5.04768968e-01     0.00000000e+00    
           5.14451027e-01     5.04526019e-01     0.00000000e+00    
           5.16296625e-01     5.04768968e-01     0.00000000e+00    
           5.18016517e-01     5.05481362e-01     0.00000000e+00    
           5.19493401e-01     5.06614625e-01     0.00000000e+00    
           5.20626605e-01     5.08091509e-01     0.00000000e+00    
           5.21338999e-01     5.09811342e-01     0.00000000e+00    
           4.66931671e-01     5.04409373e-01     0.00000000e+00    
           4.68693614e-01     5.04328012e-01     0.00000000e+00    
           4.70421344e-01     5.04682958e-01     0.00000000e+00    
           4.72008497e-01     5.05452335e-01     0.00000000e+00    
           4.73357379e-01     5.06588817e-01     0.00000000e+00    
           4.74384934e-01     5.08022368e-01     0.00000000e+00    
           4.75027919e-01     5.09664834e-01     0.00000000e+00    
           4.75028187e-01     5.13165236e-01     0.00000000e+00    
           4.74385172e-01     5.14807761e-01     0.00000000e+00    
           4.73357558e-01     5.16241372e-01     0.00000000e+00    
           4.72008646e-01     5.17377913e-01     0.00000000e+00    
           4.70421433e-01     5.18147290e-01     0.00000000e+00    
           4.68693614e-01     5.18502235e-01     0.00000000e+00    
           4.66931641e-01     5.18420875e-01     0.00000000e+00    
           5.32303810e-01     5.16964078e-01     0.00000000e+00    
           5.31043947e-01     5.15658796e-01     0.00000000e+00    
           5.30155540e-01     5.14077127e-01     0.00000000e+00    
           5.29696345e-01     5.12322068e-01     0.00000000e+00    
           5.29696345e-01     5.10507941e-01     0.00000000e+00    
           5.30155540e-01     5.08752882e-01     0.00000000e+00    
           5.31043947e-01     5.07171214e-01     0.00000000e+00    
           5.32303810e-01     5.05865932e-01     0.00000000e+00    
           4.68517244e-01     5.32760799e-01     0.00000000e+00    
           4.68509018e-01     5.30844629e-01     0.00000000e+00    
           4.68960851e-01     5.28982460e-01     0.00000000e+00    
           4.69846308e-01     5.27283132e-01     0.00000000e+00    
           4.71113682e-01     5.25845945e-01     0.00000000e+00    
           4.72688884e-01     5.24754822e-01     0.00000000e+00    
           4.74479854e-01     5.24073541e-01     0.00000000e+00    
           4.78284091e-01     5.24073601e-01     0.00000000e+00    
           4.80075032e-01     5.24754822e-01     0.00000000e+00    
           4.81650203e-01     5.25845885e-01     0.00000000e+00    
           4.82917547e-01     5.27283013e-01     0.00000000e+00    
           4.83803004e-01     5.28982282e-01     0.00000000e+00    
           4.84254897e-01     5.30844331e-01     0.00000000e+00    
           4.84246761e-01     5.32760441e-01     0.00000000e+00    
           4.82887864e-01     4.67691004e-01     0.00000000e+00    
           4.81620818e-01     4.69110936e-01     0.00000000e+00    
           4.80051905e-01     4.70188022e-01     0.00000000e+00    
           4.78271484e-01     4.70860153e-01     0.00000000e+00    
           4.76382166e-01     4.71088618e-01     0.00000000e+00    
           4.74492878e-01     4.70860243e-01     0.00000000e+00    
           4.72712427e-01     4.70188200e-01     0.00000000e+00    
           4.71143454e-01     4.69111174e-01     0.00000000e+00    
           4.69876349e-01     4.67691302e-01     0.00000000e+00    
           4.88103986e-01     5.33086061e-01     0.00000000e+00    
           4.87431526e-01     5.31323195e-01     0.00000000e+00    
           4.87231195e-01     5.29447019e-01     0.00000000e+00    
           4.87516224e-01     5.27581930e-01     0.00000000e+00    
           4.88267750e-01     5.25851250e-01     0.00000000e+00    
           4.89436030e-01     5.24369657e-01     0.00000000e+00    
           4.90943670e-01     5.23235261e-01     0.00000000e+00    
           4.92690891e-01     5.22523046e-01     0.00000000e+00    
           4.96432930e-01     5.22523701e-01     0.00000000e+00    
           4.98180002e-01     5.23235798e-01     0.00000000e+00    
           4.99687493e-01     5.24370134e-01     0.00000000e+00    
           5.00855684e-01     5.25851607e-01     0.00000000e+00    
           5.01607120e-01     5.27582109e-01     0.00000000e+00    
           5.01892149e-01     5.29447079e-01     0.00000000e+00    
           5.01691818e-01     5.31323016e-01     0.00000000e+00    
           5.01019418e-01     5.33085763e-01     0.00000000e+00    
           4.98371124e-01     4.67269689e-01     0.00000000e+00    
           4.96539861e-01     4.68064904e-01     0.00000000e+00    
           4.94562000e-01     4.68336672e-01     0.00000000e+00    
           4.92584139e-01     4.68064904e-01     0.00000000e+00    
           4.90752876e-01     4.67269689e-01     0.00000000e+00    
           5.32269001e-01     4.75995690e-01     0.00000000e+00    
           5.31541944e-01     4.77750987e-01     0.00000000e+00    
           5.30385315e-01     4.79258329e-01     0.00000000e+00    
           5.28877974e-01     4.80414927e-01     0.00000000e+00    
[...]
      <PointData>
        <DataArray type="Float32" Name="Displacement" NumberOfComponents="3">
           1.71850401e-03     9.67109634e-04     0.00000000e+00    
           1.71628210e-03     1.22498476e-03     0.00000000e+00    
           1.88673590e-03     9.84777114e-04     0.00000000e+00    
           1.60971587e-03     9.71321657e-04     0.00000000e+00    
           1.74917176e-03     7.88468693e-04     0.00000000e+00    
           1.60971587e-03     9.71321657e-04     0.00000000e+00    
           1.88673590e-03     9.84777114e-04     0.00000000e+00    
           2.32964242e-03     1.17081101e-03     0.00000000e+00    
           2.33046431e-03     1.48555578e-03     0.00000000e+00    
           2.08375813e-03     1.31613738e-03     0.00000000e+00    
          -1.95357570e-05     3.10555828e-04     0.00000000e+00    
          -2.03574655e-05    -4.18895615e-06     0.00000000e+00    
           2.24659475e-03     1.23001437e-03     0.00000000e+00    
           2.24603736e-03     1.31981331e-03     0.00000000e+00    
           2.12262454e-03     1.25944044e-03     0.00000000e+00    
          -1.03962586e-04     1.44813341e-04     0.00000000e+00    
          -1.03405226e-04     5.50143704e-05     0.00000000e+00    
           6.73611008e-04     1.68058556e-04     0.00000000e+00    
           6.68640481e-04     6.00143976e-04     0.00000000e+00    
           1.99785852e-03     1.03357236e-03     0.00000000e+00    
           2.19740043e-03     1.04546244e-03     0.00000000e+00    
           2.10110121e-03     1.30368676e-03     0.00000000e+00    
           2.19740043e-03     1.04546244e-03     0.00000000e+00    
           1.99785852e-03     1.03357236e-03     0.00000000e+00    
           1.88831112e-03     9.54942137e-04     0.00000000e+00    
           1.88288023e-03     1.24724221e-03     0.00000000e+00    
           2.15334259e-03     1.22134155e-03     0.00000000e+00    
           2.15826952e-03     1.35665748e-03     0.00000000e+00    
           9.96279414e-04     5.85611095e-04     0.00000000e+00    
           9.88679123e-04     7.43358512e-04     0.00000000e+00    
           9.06623085e-04     6.52609218e-04     0.00000000e+00    
           7.60021736e-04     6.45228778e-04     0.00000000e+00    
           8.39865243e-04     4.51601314e-04     0.00000000e+00    
           7.60021736e-04     6.45228778e-04     0.00000000e+00    
           9.06623085e-04     6.52609218e-04     0.00000000e+00    
           1.39233132e-03     6.71987887e-04     0.00000000e+00    
           1.39240792e-03     8.29632336e-04     0.00000000e+00    
           8.78735445e-04     4.17584379e-04     0.00000000e+00    
           8.71183292e-04     5.68133837e-04     0.00000000e+00    
           1.39670516e-03     7.80741451e-04     0.00000000e+00    
           1.39887747e-03     8.62972869e-04     0.00000000e+00    
           1.51535962e-03     7.84615870e-04     0.00000000e+00    
           1.51375018e-03     1.01908715e-03     0.00000000e+00    
           1.41886901e-03     8.40799476e-04     0.00000000e+00    
           1.42191199e-03     9.25346976e-04     0.00000000e+00    
           1.15758786e-03     5.07007178e-04     0.00000000e+00    
           1.15266501e-03     8.35970743e-04     0.00000000e+00    
           2.34999997e-03     1.17499998e-03     0.00000000e+00    
           0.00000000e+00     0.00000000e+00     0.00000000e+00    
           0.00000000e+00     0.00000000e+00     0.00000000e+00    
           2.34999997e-03     1.17499998e-03     0.00000000e+00    
           1.75611139e-03     9.74078546e-04     0.00000000e+00    
           1.79093552e-03     9.88993561e-04     0.00000000e+00    
           1.82050583e-03     1.01141946e-03     0.00000000e+00    
           1.84255408e-03     1.03997614e-03     0.00000000e+00    
           1.85579481e-03     1.07284437e-03     0.00000000e+00    
           1.85974909e-03     1.10696640e-03     0.00000000e+00    
           1.85467605e-03     1.14033895e-03     0.00000000e+00    
           1.84048398e-03     1.17069390e-03     0.00000000e+00    
           1.81673199e-03     1.19588431e-03     0.00000000e+00    
           1.78657973e-03     1.21315895e-03     0.00000000e+00    
           1.75266538e-03     1.22305483e-03     0.00000000e+00    
           1.67960580e-03     1.21843501e-03     0.00000000e+00    
           1.64517958e-03     1.20390300e-03     0.00000000e+00    
           1.61601882e-03     1.18151563e-03     0.00000000e+00    
           1.59400376e-03     1.15334406e-03     0.00000000e+00    
           1.58034568e-03     1.12147594e-03     0.00000000e+00    
           1.57588418e-03     1.08864764e-03     0.00000000e+00    
           1.58008642e-03     1.05717883e-03     0.00000000e+00    
           1.59216812e-03     1.02807768e-03     0.00000000e+00    
           1.61214580e-03     1.00215245e-03     0.00000000e+00    
           1.64133776e-03     9.81899444e-04     0.00000000e+00    
           1.67878845e-03     9.69747431e-04     0.00000000e+00    
           1.60008029e-03     9.38620127e-04     0.00000000e+00    
           1.59918447e-03     9.04702989e-04     0.00000000e+00    
           1.60677417e-03     8.71778233e-04     0.00000000e+00    
           1.62334403e-03     8.42335576e-04     0.00000000e+00    
           1.64818007e-03     8.18411820e-04     0.00000000e+00    
           1.67866587e-03     8.01023794e-04     0.00000000e+00    
           1.71269069e-03     7.91459286e-04     0.00000000e+00    
           1.78550754e-03     7.93903950e-04     0.00000000e+00    
           1.81959651e-03     8.07371864e-04     0.00000000e+00    
           1.84948568e-03     8.28121963e-04     0.00000000e+00    
           1.87291997e-03     8.54762329e-04     0.00000000e+00    
           1.88904256e-03     8.85591202e-04     0.00000000e+00    
           1.89713365e-03     9.18677892e-04     0.00000000e+00    
           1.89610547e-03     9.52426461e-04     0.00000000e+00    
           1.86673843e-03     1.01519027e-03     0.00000000e+00    
           1.83635810e-03     1.03932677e-03     0.00000000e+00    
           1.80022197e-03     1.05478591e-03     0.00000000e+00    
           1.76199235e-03     1.06127257e-03     0.00000000e+00    
           1.72378542e-03     1.05843134e-03     0.00000000e+00    
           1.68672483e-03     1.04740704e-03     0.00000000e+00    
           1.65410130e-03     1.02829805e-03     0.00000000e+00    
           1.62806548e-03     1.00208039e-03     0.00000000e+00    
           2.28735385e-03     1.49214768e-03     0.00000000e+00    
           2.24319845e-03     1.48986850e-03     0.00000000e+00    
           2.20030965e-03     1.47846190e-03     0.00000000e+00    
           2.16158829e-03     1.45784090e-03     0.00000000e+00    
           2.12916452e-03     1.42926024e-03     0.00000000e+00    
           2.10462464e-03     1.39487197e-03     0.00000000e+00    
           2.08905619e-03     1.35645876e-03     0.00000000e+00    
           2.08869274e-03     1.27585419e-03     0.00000000e+00    
           2.10425211e-03     1.23821863e-03     0.00000000e+00    
           2.12993543e-03     1.20537402e-03     0.00000000e+00    
           2.16442184e-03     1.17977720e-03     0.00000000e+00    
           2.20291386e-03     1.16377708e-03     0.00000000e+00    
           2.24326923e-03     1.15779508e-03     0.00000000e+00    
           2.28621787e-03     1.15957845e-03     0.00000000e+00    
           1.98572852e-05     1.59021765e-05     0.00000000e+00    
           5.38604581e-05     4.40504264e-05     0.00000000e+00    
           7.95110609e-05     7.87968238e-05     0.00000000e+00    
           9.55460127e-05     1.17566007e-04     0.00000000e+00    
           1.00771606e-04     1.58458832e-04     0.00000000e+00    
           9.60657708e-05     1.98069407e-04     0.00000000e+00    
           8.04372976e-05     2.36185107e-04     0.00000000e+00    
           5.55097577e-05     2.69223121e-04     0.00000000e+00    
           2.03180261e-05     2.94558966e-04     0.00000000e+00    
           2.23014201e-03     1.32663455e-03     0.00000000e+00    
           2.21297657e-03     1.32845982e-03     0.00000000e+00    
           2.19480833e-03     1.32665935e-03     0.00000000e+00    
           2.17573554e-03     1.32183300e-03     0.00000000e+00    
           2.15701340e-03     1.31442107e-03     0.00000000e+00    
           2.14193412e-03     1.30302634e-03     0.00000000e+00    
           2.13113264e-03     1.28920178e-03     0.00000000e+00    
           2.12459569e-03     1.27457466e-03     0.00000000e+00    
           2.12516822e-03     1.24493043e-03     0.00000000e+00    
           2.13273428e-03     1.23196398e-03     0.00000000e+00    
           2.14442797e-03     1.22210046e-03     0.00000000e+00    
           2.15883297e-03     1.21532113e-03     0.00000000e+00    
           2.17449246e-03     1.21253717e-03     0.00000000e+00    
           2.19226396e-03     1.21196476e-03     0.00000000e+00    
           2.21129996e-03     1.21465267e-03     0.00000000e+00    
           2.23040767e-03     1.22038845e-03     0.00000000e+00    
          -9.02421307e-05     6.86221829e-05     0.00000000e+00    
          -8.21060385e-05     8.43466987e-05     0.00000000e+00    
          -7.93876170e-05     1.01055019e-04     0.00000000e+00    
          -8.24402450e-05     1.17633579e-04     0.00000000e+00    
          -9.03911496e-05     1.32686677e-04     0.00000000e+00    
           7.32966058e-04     1.77052163e-04     0.00000000e+00    
           7.87509198e-04     2.00619543e-04     0.00000000e+00    
           8.33805418e-04     2.37017928e-04     0.00000000e+00    
           8.69130599e-04     2.83064146e-04     0.00000000e+00    
           8.91553122e-04     3.35967547e-04     0.00000000e+00    
           8.99182458e-04     3.92420043e-04     0.00000000e+00    
           8.92641256e-04     4.48531966e-04     0.00000000e+00    
           8.70315940e-04     5.00046706e-04     0.00000000e+00    
           8.33336962e-04     5.43965318e-04     0.00000000e+00    
           7.84269359e-04     5.76813181e-04     0.00000000e+00    
           7.27777893e-04     5.95932885e-04     0.00000000e+00    
           6.08931587e-04     5.91040531e-04     0.00000000e+00    
           5.53506543e-04     5.67687617e-04     0.00000000e+00    
           5.06010780e-04     5.31599449e-04     0.00000000e+00    
           4.69928986e-04     4.85081109e-04     0.00000000e+00    
           4.47592145e-04     4.31559485e-04     0.00000000e+00    
           4.40274714e-04     3.75033793e-04     0.00000000e+00    
           4.47620725e-04     3.19219282e-04     0.00000000e+00    
           4.70436411e-04     2.67509837e-04     0.00000000e+00    
           5.07569464e-04     2.24082250e-04     0.00000000e+00    
           5.57072402e-04     1.92170788e-04     0.00000000e+00    
           6.13703101e-04     1.73310982e-04     0.00000000e+00    
           2.22492055e-03     1.07300002e-03     0.00000000e+00    
           2.24484922e-03     1.10615720e-03     0.00000000e+00    
           2.25583371e-03     1.14308682e-03     0.00000000e+00    
           2.25686142e-03     1.18143775e-03     0.00000000e+00    
           2.24775053e-03     1.21796888e-03     0.00000000e+00    
           2.22919858e-03     1.25037378e-03     0.00000000e+00    
           2.20276555e-03     1.27568084e-03     0.00000000e+00    
           2.17187894e-03     1.29287457e-03     0.00000000e+00    
           2.13825330e-03     1.30185718e-03     0.00000000e+00    
           2.06086179e-03     1.29804993e-03     0.00000000e+00    
           2.02109269e-03     1.28410454e-03     0.00000000e+00    
           1.98682747e-03     1.26135792e-03     0.00000000e+00    
           1.96012203e-03     1.23189751e-03     0.00000000e+00    
           1.94264378e-03     1.19780505e-03     0.00000000e+00    
           1.93419773e-03     1.16208603e-03     0.00000000e+00    
           1.93517713e-03     1.12593279e-03     0.00000000e+00    
           1.94549782e-03     1.09109620e-03     0.00000000e+00    
           1.96657330e-03     1.05939445e-03     0.00000000e+00    
           2.03066343e-03     1.01794431e-03     0.00000000e+00    
           2.06537126e-03     1.01002329e-03     0.00000000e+00    
           2.10052915e-03     1.00910198e-03     0.00000000e+00    
           2.13508774e-03     1.01520331e-03     0.00000000e+00    
           2.16787122e-03     1.02735753e-03     0.00000000e+00    
           1.92685169e-03     9.61106096e-04     0.00000000e+00    
           1.96314394e-03     9.75377625e-04     0.00000000e+00    
           1.99542497e-03     9.96774645e-04     0.00000000e+00    
           2.02052132e-03     1.02455425e-03     0.00000000e+00    
           2.03809771e-03     1.05625857e-03     0.00000000e+00    
           2.04739929e-03     1.08994357e-03     0.00000000e+00    
           2.04712106e-03     1.12505245e-03     0.00000000e+00    
           2.03784951e-03     1.15988893e-03     0.00000000e+00    
           2.01901700e-03     1.19154411e-03     0.00000000e+00    
           1.99119910e-03     1.21799554e-03     0.00000000e+00    
           1.95718044e-03     1.23635435e-03     0.00000000e+00    
           1.92073360e-03     1.24532566e-03     0.00000000e+00    
           1.84554490e-03     1.24057219e-03     0.00000000e+00    
           1.81071053e-03     1.22617744e-03     0.00000000e+00    
           1.77980517e-03     1.20464608e-03     0.00000000e+00    
           1.75519090e-03     1.17684365e-03     0.00000000e+00    
           1.73780520e-03     1.14438229e-03     0.00000000e+00    
           1.72857754e-03     1.10916398e-03     0.00000000e+00    
           1.72887871e-03     1.07359828e-03     0.00000000e+00    
           1.73761777e-03     1.03979872e-03     0.00000000e+00    
           1.75557076e-03     1.00945414e-03     0.00000000e+00    
           1.78172335e-03     9.84541723e-04     0.00000000e+00    
           1.81406410e-03     9.66965512e-04     0.00000000e+00    
           1.85019406e-03     9.57125972e-04     0.00000000e+00    
           2.17710854e-03     1.22542097e-03     0.00000000e+00    
           2.19985330e-03     1.23469846e-03     0.00000000e+00    
           2.21818755e-03     1.24894839e-03     0.00000000e+00    
           2.23073713e-03     1.26707123e-03     0.00000000e+00    
           2.23686150e-03     1.28718768e-03     0.00000000e+00    
           2.23631831e-03     1.30768237e-03     0.00000000e+00    
           2.22922815e-03     1.32690405e-03     0.00000000e+00    
           2.21570628e-03     1.34280301e-03     0.00000000e+00    
           2.19801813e-03     1.35316211e-03     0.00000000e+00    
           2.17909180e-03     1.35649263e-03     0.00000000e+00    
           2.13602651e-03     1.35271007e-03     0.00000000e+00    
           2.11420632e-03     1.34407997e-03     0.00000000e+00    
           2.09579500e-03     1.33011700e-03     0.00000000e+00    
           2.08235625e-03     1.31213584e-03     0.00000000e+00    
           2.07540812e-03     1.29108992e-03     0.00000000e+00    
           2.07595667e-03     1.26978662e-03     0.00000000e+00    
           2.08263542e-03     1.25041953e-03     0.00000000e+00    
           2.09557405e-03     1.23476621e-03     0.00000000e+00    
           2.11215019e-03     1.22502376e-03     0.00000000e+00    
           2.13082903e-03     1.22137903e-03     0.00000000e+00    
           1.02021976e-03     5.89765958e-04     0.00000000e+00    
           1.04184949e-03     5.99226682e-04     0.00000000e+00    
           1.06004765e-03     6.13548618e-04     0.00000000e+00    
           1.07378419e-03     6.31945266e-04     0.00000000e+00    
           1.08158006e-03     6.52469695e-04     0.00000000e+00    
           1.08378951e-03     6.73567876e-04     0.00000000e+00    
           1.08040159e-03     6.93698006e-04     0.00000000e+00    
           1.07091595e-03     7.12075271e-04     0.00000000e+00    
           1.05443143e-03     7.26773869e-04     0.00000000e+00    
           1.03428925e-03     7.36444199e-04     0.00000000e+00    
           1.01185078e-03     7.42207747e-04     0.00000000e+00    
           9.65702522e-04     7.39361683e-04     0.00000000e+00    
           9.44449217e-04     7.29941239e-04     0.00000000e+00    
           9.26401233e-04     7.16330658e-04     0.00000000e+00    
           9.12451826e-04     6.98949792e-04     0.00000000e+00    
           9.03591281e-04     6.79353019e-04     0.00000000e+00    
           9.00340732e-04     6.58171251e-04     0.00000000e+00    
           9.03759792e-04     6.36937504e-04     0.00000000e+00    
           9.13511263e-04     6.17285317e-04     0.00000000e+00    
           9.29683039e-04     6.01610052e-04     0.00000000e+00    
           9.50199203e-04     5.90888958e-04     0.00000000e+00    
           9.72765149e-04     5.85896312e-04     0.00000000e+00    
           7.38702074e-04     6.25606044e-04     0.00000000e+00    
           7.22920173e-04     6.01687585e-04     0.00000000e+00    
           7.14075752e-04     5.74657810e-04     0.00000000e+00    
           7.12747627e-04     5.46067255e-04     0.00000000e+00    
           7.19072996e-04     5.18869143e-04     0.00000000e+00    
           7.34506815e-04     4.93140193e-04     0.00000000e+00    
           7.56949710e-04     4.72522224e-04     0.00000000e+00    
           7.83420110e-04     4.59696312e-04     0.00000000e+00    
           8.11175152e-04     4.52738110e-04     0.00000000e+00    
           8.68583447e-04     4.56973154e-04     0.00000000e+00    
           8.95301055e-04     4.68290789e-04     0.00000000e+00    
           9.19084006e-04     4.85434633e-04     0.00000000e+00    
           9.38174955e-04     5.07251185e-04     0.00000000e+00    
           9.51703463e-04     5.32947830e-04     0.00000000e+00    
           9.57500772e-04     5.60341752e-04     0.00000000e+00    
           9.55908909e-04     5.87485963e-04     0.00000000e+00    
           9.46917338e-04     6.13036449e-04     0.00000000e+00    
           9.30115581e-04     6.35322416e-04     0.00000000e+00    
           8.78849416e-04     6.63763320e-04     0.00000000e+00    
           8.48519325e-04     6.68975408e-04     0.00000000e+00    
           8.17075546e-04     6.68221037e-04     0.00000000e+00    
           7.86788529e-04     6.60151942e-04     0.00000000e+00    
           1.41460937e-03     6.76446827e-04     0.00000000e+00    
           1.43537100e-03     6.85435371e-04     0.00000000e+00    
           1.45357649e-03     6.98419579e-04     0.00000000e+00    
           1.46846671e-03     7.14795780e-04     0.00000000e+00    
           1.47850672e-03     7.34256522e-04     0.00000000e+00    
           1.48227590e-03     7.56047724e-04     0.00000000e+00    
           1.47938880e-03     7.78364600e-04     0.00000000e+00    
           1.47021492e-03     7.98248162e-04     0.00000000e+00    
           1.45616883e-03     8.13596766e-04     0.00000000e+00    
           1.43853144e-03     8.23648996e-04     0.00000000e+00    
           1.41718017e-03     8.28297343e-04     0.00000000e+00    
           1.36676931e-03     8.25563562e-04     0.00000000e+00    
           1.34318508e-03     8.15798587e-04     0.00000000e+00    
           1.32330658e-03     8.01117916e-04     0.00000000e+00    
           1.30873977e-03     7.82516785e-04     0.00000000e+00    
           1.30014319e-03     7.61875766e-04     0.00000000e+00    
           1.29738718e-03     7.40650925e-04     0.00000000e+00    
           1.30048976e-03     7.20480690e-04     0.00000000e+00    
           1.30988075e-03     7.02301273e-04     0.00000000e+00    
           1.32605375e-03     6.87314197e-04     0.00000000e+00    