<?xml version="1.0"?>
<VTKFile type="UnstructuredGrid" version="0.1">
  <UnstructuredGrid>
    <Piece NumberOfPoints="1034" NumberOfCells="1614">
      <Points>
        <DataArray type="Float32" NumberOfComponents="3">
           5.21582007e-01     5.11657000e-01     0.00000000e+00    
           5.07319987e-01     5.11657000e-01     0.00000000e+00    
           4.65243995e-01     5.17907977e-01     0.00000000e+00    
           4.65243995e-01     5.04921973e-01     0.00000000e+00    
           4.75246996e-01     5.11415005e-01     0.00000000e+00    
           5.33852994e-01     5.04921973e-01     0.00000000e+00    
           5.33852994e-01     5.17907977e-01     0.00000000e+00    
           4.83779997e-01     5.34618974e-01     0.00000000e+00    
           4.68984991e-01     5.34618974e-01     0.00000000e+00    
           4.76381987e-01     5.23841977e-01     0.00000000e+00    
           4.68984991e-01     4.66010004e-01     0.00000000e+00    
           4.83779997e-01     4.66010004e-01     0.00000000e+00    
           4.99920011e-01     5.34618974e-01     0.00000000e+00    
           4.89203990e-01     5.34618974e-01     0.00000000e+00    
           4.94562000e-01     5.22280991e-01     0.00000000e+00    
           4.89203990e-01     4.66010004e-01     0.00000000e+00    
           4.99920011e-01     4.66010004e-01     0.00000000e+00    
           5.32517016e-01     4.74112004e-01     0.00000000e+00    
           5.17961025e-01     4.74112004e-01     0.00000000e+00    
           5.33852994e-01     5.19801974e-01     0.00000000e+00    
           5.33852994e-01     5.29603004e-01     0.00000000e+00    
           5.19536972e-01     5.24702013e-01     0.00000000e+00    
           4.65243995e-01     5.29603004e-01     0.00000000e+00    
           4.65243995e-01     5.19801974e-01     0.00000000e+00    
           4.92487997e-01     5.17117977e-01     0.00000000e+00    
           4.76904988e-01     5.17117977e-01     0.00000000e+00    
           5.17996013e-01     5.27033985e-01     0.00000000e+00    
           5.04473984e-01     5.27033985e-01     0.00000000e+00    
           5.08446991e-01     4.83435005e-01     0.00000000e+00    
           4.94414002e-01     4.83435005e-01     0.00000000e+00    
           4.65243995e-01     4.83101994e-01     0.00000000e+00    
           4.65243995e-01     4.74415004e-01     0.00000000e+00    
           4.78336990e-01     4.78758007e-01     0.00000000e+00    
           5.33852994e-01     4.74415004e-01     0.00000000e+00    
           5.33852994e-01     4.83101994e-01     0.00000000e+00    
           4.80668008e-01     4.95810986e-01     0.00000000e+00    
           4.66084987e-01     4.95810986e-01     0.00000000e+00    
           4.93930012e-01     4.79214013e-01     0.00000000e+00    
           4.78967011e-01     4.79214013e-01     0.00000000e+00    
           5.09284973e-01     4.97658014e-01     0.00000000e+00    
           4.95503992e-01     4.97658014e-01     0.00000000e+00    
           5.33011973e-01     5.01751006e-01     0.00000000e+00    
           5.17829001e-01     5.01751006e-01     0.00000000e+00    
           4.95451003e-01     5.00564992e-01     0.00000000e+00    
           4.80922014e-01     5.00564992e-01     0.00000000e+00    
           5.25367022e-01     4.88312006e-01     0.00000000e+00    
           5.09521008e-01     4.88312006e-01     0.00000000e+00    
           4.65243995e-01     5.34618974e-01     0.00000000e+00    
           4.65243995e-01     4.66010004e-01     0.00000000e+00    
           5.33852994e-01     4.66010004e-01     0.00000000e+00    
           5.33852994e-01     5.34618974e-01     0.00000000e+00    
           5.21338999e-01     5.13502657e-01     0.00000000e+00    
           5.20626605e-01     5.15222490e-01     0.00000000e+00    
           5.19493401e-01     5.16699374e-01     0.00000000e+00    
           5.18016517e-01     5.17832637e-01     0.00000000e+00    
           5.16296625e-01     5.18545032e-01     0.00000000e+00    
           5.14451027e-01     5.18787980e-01     0.00000000e+00    
           5.12605369e-01     5.18545032e-01     0.00000000e+00    
           5.10885477e-01     5.17832637e-01     0.00000000e+00    
           5.09408593e-01     5.16699374e-01     0.00000000e+00    
           5.08275390e-01     5.15222490e-01     0.00000000e+00    
           5.07562995e-01     5.13502657e-01     0.00000000e+00    
           5.07562995e-01     5.09811342e-01     0.00000000e+00    
           5.08275390e-01     5.08091509e-01     0.00000000e+00    
           5.09408593e-01     5.06614625e-01     0.00000000e+00    
           5.10885477e-01     5.05481362e-01     0.00000000e+00    
           5.12605369e-01     5.04768968e-01     0.00000000e+00    
           5.14451027e-01     5.04526019e-01     0.00000000e+00    
           5.16296625e-01     5.04768968e-01     0.00000000e+00    
           5.18016517e-01     5.05481362e-01     0.00000000e+00    
           5.19493401e-01     5.06614625e-01     0.00000000e+00    
           5.20626605e-01     5.08091509e-01     0.00000000e+00    
           5.21338999e-01     5.09811342e-01     0.00000000e+00    
           4.66931671e-01     5.04409373e-01     0.00000000e+00    
           4.68693614e-01     5.04328012e-01     0.00000000e+00    
           4.70421344e-01     5.04682958e-01     0.00000000e+00    
           4.72008497e-01     5.05452335e-01     0.00000000e+00    
           4.73357379e-01     5.06588817e-01     0.00000000e+00    
           4.74384934e-01     5.08022368e-01     0.00000000e+00    
           4.75027919e-01     5.09664834e-01     0.00000000e+00    
           4.75028187e-01     5.13165236e-01     0.00000000e+00    
           4.74385172e-01     5.14807761e-01     0.00000000e+00    
           4.73357558e-01     5.16241372e-01     0.00000000e+00    
           4.72008646e-01     5.17377913e-01     0.00000000e+00    
           4.70421433e-01     5.18147290e-01     0.00000000e+00    
           4.68693614e-01     5.18502235e-01     0.00000000e+00    
           4.66931641e-01     5.18420875e-01     0.00000000e+00    
           5.32303810e-01     5.16964078e-01     0.00000000e+00    
           5.31043947e-01     5.15658796e-01     0.00000000e+00    
           5.30155540e-01     5.14077127e-01     0.00000000e+00    
           5.29696345e-01     5.12322068e-01     0.00000000e+00    
           5.29696345e-01     5.10507941e-01     0.00000000e+00    
           5.30155540e-01     5.08752882e-01     0.00000000e+00    
           5.31043947e-01     5.07171214e-01     0.00000000e+00    
           5.32303810e-01     5.05865932e-01     0.00000000e+00    
           4.68517244e-01     5.32760799e-01     0.00000000e+00    
           4.68509018e-01     5.30844629e-01     0.00000000e+00    
           4.68960851e-01     5.28982460e-01     0.00000000e+00    
           4.69846308e-01     5.27283132e-01     0.00000000e+00    
           4.71113682e-01     5.25845945e-01     0.00000000e+00    
           4.72688884e-01     5.24754822e-01     0.00000000e+00    
           4.74479854e-01     5.24073541e-01     0.00000000e+00    
           4.78284091e-01     5.24073601e-01     0.00000000e+00    
           4.80075032e-01     5.24754822e-01     0.00000000e+00    
           4.81650203e-01     5.25845885e-01     0.00000000e+00    
           4.82917547e-01     5.27283013e-01     0.00000000e+00    
           4.83803004e-01     5.28982282e-01     0.00000000e+00    
           4.84254897e-01     5.30844331e-01     0.00000000e+00    
           4.84246761e-01     5.32760441e-01     0.00000000e+00    
           4.82887864e-01     4.67691004e-01     0.00000000e+00    
           4.81620818e-01     4.69110936e-01     0.00000000e+00    
           4.80051905e-01     4.70188022e-01     0.00000000e+00    
           4.78271484e-01     4.70860153e-01     0.00000000e+00    
           4.76382166e-01     4.71088618e-01     0.00000000e+00    
           4.74492878e-01     4.70860243e-01     0.00000000e+00    
           4.72712427e-01     4.70188200e-01     0.00000000e+00    
           4.71143454e-01     4.69111174e-01     0.00000000e+00    
           4.69876349e-01     4.67691302e-01     0.00000000e+00    
           4.88103986e-01     5.33086061e-01     0.00000000e+00    
           4.87431526e-01     5.31323195e-01     0.00000000e+00    
           4.87231195e-01     5.29447019e-01     0.00000000e+00    
           4.87516224e-01     5.27581930e-01     0.00000000e+00    
           4.88267750e-01     5.25851250e-01     0.00000000e+00    
           4.89436030e-01     5.24369657e-01     0.00000000e+00    
           4.90943670e-01     5.23235261e-01     0.00000000e+00    
           4.92690891e-01     5.22523046e-01     0.00000000e+00    
           4.96432930e-01     5.22523701e-01     0.00000000e+00    
           4.98180002e-01     5.23235798e-01     0.00000000e+00    
           4.99687493e-01     5.24370134e-01     0.00000000e+00    
           5.00855684e-01     5.25851607e-01     0.00000000e+00    
           5.01607120e-01     5.27582109e-01     0.00000000e+00    
           5.01892149e-01     5.29447079e-01     0.00000000e+00    
           5.01691818e-01     5.31323016e-01     0.00000000e+00    
           5.01019418e-01     5.33085763e-01     0.00000000e+00    
           4.98371124e-01     4.67269689e-01     0.00000000e+00    
           4.96539861e-01     4.68064904e-01     0.00000000e+00    
           4.94562000e-01     4.68336672e-01     0.00000000e+00    
           4.92584139e-01     4.68064904e-01     0.00000000e+00    
           4.90752876e-01     4.67269689e-01     0.00000000e+00    
           5.32269001e-01     4.75995690e-01     0.00000000e+00    
           5.31541944e-01     4.77750987e-01     0.00000000e+00    
           5.30385315e-01     4.79258329e-01     0.00000000e+00    
           5.28877974e-01     4.80414927e-01     0.00000000e+00    
[...]
      <PointData>
        <DataArray type="Float32" Name="Displacement" NumberOfComponents="3">
           7.19457050e-04     3.54885095e-04     0.00000000e+00    
           7.17982359e-04     4.91067825e-04     0.00000000e+00    
           7.93008250e-04     3.88336048e-04     0.00000000e+00    
           6.57458499e-04     3.76174343e-04     0.00000000e+00    
           7.26345228e-04     3.00310290e-04     0.00000000e+00    
           6.57458499e-04     3.76174343e-04     0.00000000e+00    
           7.93008250e-04     3.88336048e-04     0.00000000e+00    
           1.03961502e-03     4.66579077e-04     0.00000000e+00    
           1.04115170e-03     6.12277479e-04     0.00000000e+00    
           9.18435748e-04     5.30456949e-04     0.00000000e+00    
          -8.84827659e-06     8.72774908e-05     0.00000000e+00    
          -1.03850271e-05    -5.84209120e-05     0.00000000e+00    
           9.94725619e-04     4.69743740e-04     0.00000000e+00    
           9.95872892e-04     5.14923304e-04     0.00000000e+00    
           9.24549764e-04     4.79476817e-04     0.00000000e+00    
          -5.41271511e-05    -1.00766856e-05     0.00000000e+00    
          -5.52744059e-05    -5.52562560e-05     0.00000000e+00    
           1.95983375e-04     3.37699967e-05     0.00000000e+00    
           1.92811654e-04     1.91974206e-04     0.00000000e+00    
           8.68403062e-04     4.27472667e-04     0.00000000e+00    
           9.66587802e-04     4.38431569e-04     0.00000000e+00    
           9.20416671e-04     5.51039819e-04     0.00000000e+00    
           9.66587802e-04     4.38431569e-04     0.00000000e+00    
           8.68403062e-04     4.27472667e-04     0.00000000e+00    
           8.05612421e-04     3.44918692e-04     0.00000000e+00    
           8.01173795e-04     4.90380509e-04     0.00000000e+00    
           9.46824439e-04     4.94189211e-04     0.00000000e+00    
           9.50542453e-04     5.49265300e-04     0.00000000e+00    
           3.38205718e-04     1.79575989e-04     0.00000000e+00    
           3.31005227e-04     2.29503290e-04     0.00000000e+00    
           2.86441820e-04     1.81377967e-04     0.00000000e+00    
           2.12405270e-04     1.74413479e-04     0.00000000e+00    
           2.53269973e-04     8.83996909e-05     0.00000000e+00    
           2.12405270e-04     1.74413479e-04     0.00000000e+00    
           2.86441820e-04     1.81377967e-04     0.00000000e+00    
           5.28731151e-04     2.16842687e-04     0.00000000e+00    
           5.29973360e-04     2.90740019e-04     0.00000000e+00    
           2.75015424e-04     8.36011895e-05     0.00000000e+00    
           2.67779338e-04     1.43584970e-04     0.00000000e+00    
           5.26835909e-04     2.54904764e-04     0.00000000e+00    
           5.30411955e-04     2.94802623e-04     0.00000000e+00    
           6.01726118e-04     2.60644534e-04     0.00000000e+00    
           6.00898406e-04     3.78962781e-04     0.00000000e+00    
           5.42628055e-04     2.75690632e-04     0.00000000e+00    
           5.45955554e-04     3.19293438e-04     0.00000000e+00    
           4.15050745e-04     1.76292742e-04     0.00000000e+00    
           4.12124326e-04     3.04647721e-04     0.00000000e+00    
           1.04999996e-03     5.24999981e-04     0.00000000e+00    
           0.00000000e+00     0.00000000e+00     0.00000000e+00    
           0.00000000e+00     0.00000000e+00     0.00000000e+00    
           1.04999996e-03     5.24999981e-04     0.00000000e+00    
           7.41052965e-04     3.59639205e-04     0.00000000e+00    
           7.61019182e-04     3.68488516e-04     0.00000000e+00    
           7.77754700e-04     3.80881305e-04     0.00000000e+00    
           7.90070626e-04     3.96017567e-04     0.00000000e+00    
           7.97348213e-04     4.13564587e-04     0.00000000e+00    
           7.99563830e-04     4.31840832e-04     0.00000000e+00    
           7.96713342e-04     4.49500512e-04     0.00000000e+00    
           7.88457110e-04     4.65213758e-04     0.00000000e+00    
           7.74785003e-04     4.77931346e-04     0.00000000e+00    
           7.57729344e-04     4.86281002e-04     0.00000000e+00    
           7.38495786e-04     4.90816368e-04     0.00000000e+00    
           6.97395240e-04     4.86701872e-04     0.00000000e+00    
           6.78016513e-04     4.78493312e-04     0.00000000e+00    
           6.61541475e-04     4.66432422e-04     0.00000000e+00    
           6.49126538e-04     4.51713422e-04     0.00000000e+00    
           6.41691615e-04     4.35232738e-04     0.00000000e+00    
           6.39509410e-04     4.18374373e-04     0.00000000e+00    
           6.41704188e-04     4.02050529e-04     0.00000000e+00    
           6.47878915e-04     3.86687811e-04     0.00000000e+00    
           6.58322009e-04     3.72682407e-04     0.00000000e+00    
           6.74813113e-04     3.61817423e-04     0.00000000e+00    
           6.96486502e-04     3.55609925e-04     0.00000000e+00    
           6.53518306e-04     3.62125138e-04     0.00000000e+00    
           6.53453288e-04     3.47236200e-04     0.00000000e+00    
           6.57186145e-04     3.32546071e-04     0.00000000e+00    
           6.65316300e-04     3.19766143e-04     0.00000000e+00    
           6.77373260e-04     3.09932511e-04     0.00000000e+00    
           6.92243804e-04     3.03273118e-04     0.00000000e+00    
           7.08790380e-04     3.00417043e-04     0.00000000e+00    
           7.43706303e-04     3.03486187e-04     0.00000000e+00    
           7.59759103e-04     3.09994852e-04     0.00000000e+00    
           7.73686392e-04     3.19481827e-04     0.00000000e+00    
           7.84524542e-04     3.31314513e-04     0.00000000e+00    
           7.92319013e-04     3.44815169e-04     0.00000000e+00    
           7.96671782e-04     3.59023194e-04     0.00000000e+00    
           7.96713226e-04     3.73834686e-04     0.00000000e+00    
           7.83578143e-04     4.02208563e-04     0.00000000e+00    
           7.68369646e-04     4.12880734e-04     0.00000000e+00    
           7.50123581e-04     4.18965443e-04     0.00000000e+00    
           7.30886066e-04     4.20694269e-04     0.00000000e+00    
           7.11972476e-04     4.17790405e-04     0.00000000e+00    
           6.93635142e-04     4.11610847e-04     0.00000000e+00    
           6.77740260e-04     4.02175181e-04     0.00000000e+00    
           6.65657106e-04     3.89722642e-04     0.00000000e+00    
           1.01895689e-03     6.14027958e-04     0.00000000e+00    
           9.96684539e-04     6.11895171e-04     0.00000000e+00    
           9.75426054e-04     6.05745998e-04     0.00000000e+00    
           9.56586562e-04     5.95595629e-04     0.00000000e+00    
           9.41146398e-04     5.82071661e-04     0.00000000e+00    
           9.29247180e-04     5.66160481e-04     0.00000000e+00    
           9.21363069e-04     5.48704877e-04     0.00000000e+00    
           9.20410559e-04     5.11902268e-04     0.00000000e+00    
           9.27810790e-04     4.94252425e-04     0.00000000e+00    
           9.40441620e-04     4.78868518e-04     0.00000000e+00    
           9.57534765e-04     4.67079779e-04     0.00000000e+00    
           9.76349460e-04     4.60217503e-04     0.00000000e+00    
           9.96179297e-04     4.58375813e-04     0.00000000e+00    
           1.01755990e-03     4.60260868e-04     0.00000000e+00    
           1.04101164e-05    -4.80318158e-05     0.00000000e+00    
           2.80008717e-05    -3.40881015e-05     0.00000000e+00    
           4.12469817e-05    -1.73847257e-05     0.00000000e+00    
           4.96779867e-05     5.83978249e-07     0.00000000e+00    
           5.23105336e-05     1.98925118e-05     0.00000000e+00    
           5.00873284e-05     3.81675163e-05     0.00000000e+00    
           4.21639124e-05     5.56008090e-05     0.00000000e+00    
           2.91255801e-05     7.03719415e-05     0.00000000e+00    
           1.12743701e-05     8.10738202e-05     0.00000000e+00    
           9.87097970e-04     5.17737877e-04     0.00000000e+00    
           9.77435149e-04     5.17869776e-04     0.00000000e+00    
           9.66660678e-04     5.16162196e-04     0.00000000e+00    
           9.54985677e-04     5.12445287e-04     0.00000000e+00    
           9.43472376e-04     5.07272722e-04     0.00000000e+00    
           9.34289594e-04     5.00575232e-04     0.00000000e+00    
           9.28298512e-04     4.93075349e-04     0.00000000e+00    
           9.24967637e-04     4.86099132e-04     0.00000000e+00    
           9.26610141e-04     4.73221793e-04     0.00000000e+00    
           9.31167859e-04     4.67702805e-04     0.00000000e+00    
           9.37730656e-04     4.63639502e-04     0.00000000e+00    
           9.45574720e-04     4.60841053e-04     0.00000000e+00    
           9.54057439e-04     4.59832052e-04     0.00000000e+00    
           9.63718747e-04     4.59865056e-04     0.00000000e+00    
           9.74219874e-04     4.61380463e-04     0.00000000e+00    
           9.85058025e-04     4.64499986e-04     0.00000000e+00    
          -4.73308392e-05    -4.81719653e-05     0.00000000e+00    
          -4.20561846e-05    -4.01745492e-05     0.00000000e+00    
          -3.98649863e-05    -3.19629071e-05     0.00000000e+00    
          -4.13361267e-05    -2.34795170e-05     0.00000000e+00    
          -4.62979115e-05    -1.58085513e-05     0.00000000e+00    
           2.19303387e-04     3.76121934e-05     0.00000000e+00    
           2.40186360e-04     4.67415302e-05     0.00000000e+00    
           2.57513253e-04     6.00052990e-05     0.00000000e+00    
           2.71047989e-04     7.62668933e-05     0.00000000e+00    
           2.80446868e-04     9.53517520e-05     0.00000000e+00    
           2.84317590e-04     1.16213356e-04     0.00000000e+00    
           2.82969471e-04     1.37938856e-04     0.00000000e+00    
           2.74535472e-04     1.57645583e-04     0.00000000e+00    
           2.59634777e-04     1.74135508e-04     0.00000000e+00    
           2.39582150e-04     1.85797908e-04     0.00000000e+00    
           2.16592787e-04     1.91895364e-04     0.00000000e+00    
           1.68860424e-04     1.87272293e-04     0.00000000e+00    
           1.46744525e-04     1.77392343e-04     0.00000000e+00    
           1.27886058e-04     1.63055724e-04     0.00000000e+00    
           1.13720133e-04     1.44930920e-04     0.00000000e+00    
           1.05175546e-04     1.24212864e-04     0.00000000e+00    
           1.02633036e-04     1.02700607e-04     0.00000000e+00    
           1.05891930e-04     8.20995701e-05     0.00000000e+00    
           1.15203547e-04     6.38474667e-05     0.00000000e+00    
           1.30221262e-04     4.95040731e-05     0.00000000e+00    
           1.49710875e-04     3.98819466e-05     0.00000000e+00    
           1.72285901e-04     3.45101143e-05     0.00000000e+00    
           9.79457982e-04     4.51177388e-04     0.00000000e+00    
           9.88782616e-04     4.66607045e-04     0.00000000e+00    
           9.94028058e-04     4.84026910e-04     0.00000000e+00    
           9.94557398e-04     5.01856208e-04     0.00000000e+00    
           9.90109751e-04     5.18398185e-04     0.00000000e+00    
           9.80903744e-04     5.32256556e-04     0.00000000e+00    
           9.68151202e-04     5.42139227e-04     0.00000000e+00    
           9.53648472e-04     5.48393524e-04     0.00000000e+00    
           9.38057899e-04     5.51094708e-04     0.00000000e+00    
           9.00650455e-04     5.47773554e-04     0.00000000e+00    
           8.80727719e-04     5.40819601e-04     0.00000000e+00    
           8.63523746e-04     5.30041521e-04     0.00000000e+00    
           8.50252458e-04     5.16536704e-04     0.00000000e+00    
           8.41873814e-04     5.01241651e-04     0.00000000e+00    
           8.37686588e-04     4.85450437e-04     0.00000000e+00    
           8.37842235e-04     4.69292456e-04     0.00000000e+00    
           8.42236797e-04     4.53372428e-04     0.00000000e+00    
           8.52447702e-04     4.38952091e-04     0.00000000e+00    
           8.85137939e-04     4.21100849e-04     0.00000000e+00    
           9.02671367e-04     4.18651965e-04     0.00000000e+00    
           9.20230465e-04     4.19509743e-04     0.00000000e+00    
           9.37019300e-04     4.23544028e-04     0.00000000e+00    
           9.52660630e-04     4.29852342e-04     0.00000000e+00    
           8.26526317e-04     3.49294482e-04     0.00000000e+00    
           8.46172741e-04     3.57819838e-04     0.00000000e+00    
           8.64034402e-04     3.69267742e-04     0.00000000e+00    
           8.77224025e-04     3.83794220e-04     0.00000000e+00    
           8.86194990e-04     3.99568293e-04     0.00000000e+00    
           8.90348107e-04     4.15578514e-04     0.00000000e+00    
           8.89775169e-04     4.32335015e-04     0.00000000e+00    
           8.84980895e-04     4.49520856e-04     0.00000000e+00    
           8.74931517e-04     4.65164339e-04     0.00000000e+00    
           8.59775348e-04     4.78171074e-04     0.00000000e+00    
           8.41171597e-04     4.86767181e-04     0.00000000e+00    
           8.21523368e-04     4.90213744e-04     0.00000000e+00    
           7.81366893e-04     4.86312987e-04     0.00000000e+00    
           7.63188407e-04     4.78703732e-04     0.00000000e+00    
           7.47185084e-04     4.68117534e-04     0.00000000e+00    
           7.34239293e-04     4.54288005e-04     0.00000000e+00    
           7.24785612e-04     4.37857205e-04     0.00000000e+00    
           7.19405827e-04     4.19673917e-04     0.00000000e+00    
           7.19233532e-04     4.01327125e-04     0.00000000e+00    
           7.23744743e-04     3.84297135e-04     0.00000000e+00    
           7.33535504e-04     3.69286136e-04     0.00000000e+00    
           7.47810875e-04     3.57319164e-04     0.00000000e+00    
           7.65333069e-04     3.49137321e-04     0.00000000e+00    
           7.84963893e-04     3.44971631e-04     0.00000000e+00    
           9.58346762e-04     4.96454304e-04     0.00000000e+00    
           9.69764893e-04     5.00944559e-04     0.00000000e+00    
           9.78994067e-04     5.07521734e-04     0.00000000e+00    
           9.85038932e-04     5.15422260e-04     0.00000000e+00    
           9.87705193e-04     5.23884839e-04     0.00000000e+00    
           9.86960134e-04     5.32241713e-04     0.00000000e+00    
           9.83120757e-04     5.39657776e-04     0.00000000e+00    
           9.76766809e-04     5.45284245e-04     0.00000000e+00    
           9.68708948e-04     5.48724318e-04     0.00000000e+00    
           9.60147474e-04     5.49386721e-04     0.00000000e+00    
           9.40050173e-04     5.47769479e-04     0.00000000e+00    
           9.29410220e-04     5.44277893e-04     0.00000000e+00    
           9.20193910e-04     5.38379943e-04     0.00000000e+00    
           9.13206779e-04     5.30604564e-04     0.00000000e+00    
           9.09381721e-04     5.20792208e-04     0.00000000e+00    
           9.09584167e-04     5.10579441e-04     0.00000000e+00    
           9.13252996e-04     5.01843577e-04     0.00000000e+00    
           9.20003804e-04     4.95829911e-04     0.00000000e+00    
           9.27789137e-04     4.93298576e-04     0.00000000e+00    
           9.36260272e-04     4.93303814e-04     0.00000000e+00    
           3.48253147e-04     1.81650888e-04     0.00000000e+00    
           3.56872246e-04     1.84893332e-04     0.00000000e+00    
           3.63902363e-04     1.89931161e-04     0.00000000e+00    
           3.69640213e-04     1.97167275e-04     0.00000000e+00    
           3.72556358e-04     2.05181510e-04     0.00000000e+00    
           3.73045070e-04     2.12551691e-04     0.00000000e+00    
           3.71500995e-04     2.18828834e-04     0.00000000e+00    
           3.67108674e-04     2.24350923e-04     0.00000000e+00    
           3.59369093e-04     2.27886179e-04     0.00000000e+00    
           3.50482034e-04     2.29589961e-04     0.00000000e+00    
           3.40695493e-04     2.30209625e-04     0.00000000e+00    
           3.21508414e-04     2.27594239e-04     0.00000000e+00    
           3.13251046e-04     2.23774390e-04     0.00000000e+00    
           3.06862814e-04     2.18815767e-04     0.00000000e+00    
           3.01983033e-04     2.12926243e-04     0.00000000e+00    
           2.98721279e-04     2.06423269e-04     0.00000000e+00    
           2.97364488e-04     1.99572154e-04     0.00000000e+00    
           2.98929226e-04     1.92717911e-04     0.00000000e+00    
           3.03147186e-04     1.86543868e-04     0.00000000e+00    
           3.10056785e-04     1.82058648e-04     0.00000000e+00    
           3.18691600e-04     1.79332084e-04     0.00000000e+00    
           3.28347989e-04     1.78662871e-04     0.00000000e+00    
           2.01999384e-04     1.65628589e-04     0.00000000e+00    
           1.93799817e-04     1.55072339e-04     0.00000000e+00    
           1.88837439e-04     1.42387478e-04     0.00000000e+00    
           1.87837199e-04     1.28461979e-04     0.00000000e+00    
           1.91025349e-04     1.15418632e-04     0.00000000e+00    
           1.99528717e-04     1.03149177e-04     0.00000000e+00    
           2.11699706e-04     9.40689206e-05     0.00000000e+00    
           2.25486656e-04     8.95890189e-05     0.00000000e+00    
           2.39391258e-04     8.78847786e-05     0.00000000e+00    
           2.66987656e-04     9.13948825e-05     0.00000000e+00    
           2.79774918e-04     9.67291853e-05     0.00000000e+00    
           2.91719101e-04     1.05217441e-04     0.00000000e+00    
           3.01568274e-04     1.16175004e-04     0.00000000e+00    
           3.08811403e-04     1.28895685e-04     0.00000000e+00    
           3.11892596e-04     1.41861194e-04     0.00000000e+00    
           3.11221724e-04     1.54073045e-04     0.00000000e+00    
           3.06606293e-04     1.65180332e-04     0.00000000e+00    
           2.98117084e-04     1.74530200e-04     0.00000000e+00    
           2.72364530e-04     1.85281504e-04     0.00000000e+00    
           2.57245149e-04     1.86282705e-04     0.00000000e+00    
           2.41177884e-04     1.85511715e-04     0.00000000e+00    
           2.25722804e-04     1.81495503e-04     0.00000000e+00    
           5.39809931e-04     2.19874521e-04     0.00000000e+00    
           5.50068507e-04     2.24386051e-04     0.00000000e+00    
           5.59018925e-04     2.30368925e-04     0.00000000e+00    
           5.66962291e-04     2.38104112e-04     0.00000000e+00    
           5.72618388e-04     2.47447548e-04     0.00000000e+00    
           5.74934937e-04     2.57992942e-04     0.00000000e+00    
           5.73783182e-04     2.68893258e-04     0.00000000e+00    
           5.69325814e-04     2.78302643e-04     0.00000000e+00    
           5.62397880e-04     2.85036716e-04     0.00000000e+00    
           5.53740014e-04     2.89035524e-04     0.00000000e+00    
           5.42893889e-04     2.90537864e-04     0.00000000e+00    
           5.16397762e-04     2.88328825e-04     0.00000000e+00    
           5.03803836e-04     2.82972556e-04     0.00000000e+00    
           4.92971099e-04     2.75030558e-04     0.00000000e+00    
           4.84825723e-04     2.64888309e-04     0.00000000e+00    
           4.79950715e-04     2.53992184e-04     0.00000000e+00    
           4.78151924e-04     2.43555522e-04     0.00000000e+00    
           4.79551207e-04     2.34260675e-04     0.00000000e+00    
           4.84820077e-04     2.26235832e-04     0.00000000e+00    
           4.93597705e-04     2.20004527e-04     0.00000000e+00    