<?xml version="1.0"?>
<VTKFile type="UnstructuredGrid" version="0.1">
  <UnstructuredGrid>
    <Piece NumberOfPoints="1034" NumberOfCells="1614">
      <Points>
        <DataArray type="Float32" NumberOfComponents="3">
           5.21582007e-01     5.11657000e-01     0.00000000e+00    
           5.07319987e-01     5.11657000e-01     0.00000000e+00    
           4.65243995e-01     5.17907977e-01     0.00000000e+00    
           4.65243995e-01     5.04921973e-01     0.00000000e+00    
           4.75246996e-01     5.11415005e-01     0.00000000e+00    
           5.33852994e-01     5.04921973e-01     0.00000000e+00    
           5.33852994e-01     5.17907977e-01     0.00000000e+00    
           4.83779997e-01     5.34618974e-01     0.00000000e+00    
           4.68984991e-01     5.34618974e-01     0.00000000e+00    
           4.76381987e-01     5.23841977e-01     0.00000000e+00    
           4.68984991e-01     4.66010004e-01     0.00000000e+00    
           4.83779997e-01     4.66010004e-01     0.00000000e+00    
           4.99920011e-01     5.34618974e-01     0.00000000e+00    
           4.89203990e-01     5.34618974e-01     0.00000000e+00    
           4.94562000e-01     5.22280991e-01     0.00000000e+00    
           4.89203990e-01     4.66010004e-01     0.00000000e+00    
           4.99920011e-01     4.66010004e-01     0.00000000e+00    
           5.32517016e-01     4.74112004e-01     0.00000000e+00    
           5.17961025e-01     4.74112004e-01     0.00000000e+00    
           5.33852994e-01     5.19801974e-01     0.00000000e+00    
           5.33852994e-01     5.29603004e-01     0.00000000e+00    
           5.19536972e-01     5.24702013e-01     0.00000000e+00    
           4.65243995e-01     5.29603004e-01     0.00000000e+00    
           4.65243995e-01     5.19801974e-01     0.00000000e+00    
           4.92487997e-01     5.17117977e-01     0.00000000e+00    
           4.76904988e-01     5.17117977e-01     0.00000000e+00    
           5.17996013e-01     5.27033985e-01     0.00000000e+00    
           5.04473984e-01     5.27033985e-01     0.00000000e+00    
           5.08446991e-01     4.83435005e-01     0.00000000e+00    
           4.94414002e-01     4.83435005e-01     0.00000000e+00    
           4.65243995e-01     4.83101994e-01     0.00000000e+00    
           4.65243995e-01     4.74415004e-01     0.00000000e+00    
           4.78336990e-01     4.78758007e-01     0.00000000e+00    
           5.33852994e-01     4.74415004e-01     0.00000000e+00    
           5.33852994e-01     4.83101994e-01     0.00000000e+00    
           4.80668008e-01     4.95810986e-01     0.00000000e+00    
           4.66084987e-01     4.95810986e-01     0.00000000e+00    
           4.93930012e-01     4.79214013e-01     0.00000000e+00    
           4.78967011e-01     4.79214013e-01     0.00000000e+00    
           5.09284973e-01     4.97658014e-01     0.00000000e+00    
           4.95503992e-01     4.97658014e-01     0.00000000e+00    
           5.33011973e-01     5.01751006e-01     0.00000000e+00    
           5.17829001e-01     5.01751006e-01     0.00000000e+00    
           4.95451003e-01     5.00564992e-01     0.00000000e+00    
           4.80922014e-01     5.00564992e-01     0.00000000e+00    
           5.25367022e-01     4.88312006e-01     0.00000000e+00    
           5.09521008e-01     4.88312006e-01     0.00000000e+00    
           4.65243995e-01     5.34618974e-01     0.00000000e+00    
           4.65243995e-01     4.66010004e-01     0.00000000e+00    
           5.33852994e-01     4.66010004e-01     0.00000000e+00    
           5.33852994e-01     5.34618974e-01     0.00000000e+00    
           5.21338999e-01     5.13502657e-01     0.00000000e+00    
           5.20626605e-01     5.15222490e-01     0.00000000e+00    
           5.19493401e-01     5.16699374e-01     0.00000000e+00    
           5.18016517e-01     5.17832637e-01     0.00000000e+00    
           5.16296625e-01     5.18545032e-01     0.00000000e+00    
           5.14451027e-01     5.18787980e-01     0.00000000e+00    
           5.12605369e-01     5.18545032e-01     0.00000000e+00    
           5.10885477e-01     5.17832637e-01     0.00000000e+00    
           5.09408593e-01     5.16699374e-01     0.00000000e+00    
           5.08275390e-01     5.15222490e-01     0.00000000e+00    
           5.07562995e-01     5.13502657e-01     0.00000000e+00    
           5.07562995e-01     5.09811342e-01     0.00000000e+00    
           5.08275390e-01     5.08091509e-01     0.00000000e+00    
           5.09408593e-01     5.06614625e-01     0.00000000e+00    
           5.10885477e-01     5.05481362e-01     0.00000000e+00    
           5.12605369e-01     5.04768968e-01     0.00000000e+00    
           5.14451027e-01     5.04526019e-01     0.00000000e+00    
           5.16296625e-01     5.04768968e-01     0.00000000e+00    
           5.18016517e-01     5.05481362e-01     0.00000000e+00    
           5.19493401e-01     5.06614625e-01     0.00000000e+00    
           5.20626605e-01     5.08091509e-01     0.00000000e+00    
           5.21338999e-01     5.09811342e-01     0.00000000e+00    
           4.66931671e-01     5.04409373e-01     0.00000000e+00    
           4.68693614e-01     5.04328012e-01     0.00000000e+00    
           4.70421344e-01     5.04682958e-01     0.00000000e+00    
           4.72008497e-01     5.05452335e-01     0.00000000e+00    
           4.73357379e-01     5.06588817e-01     0.00000000e+00    
           4.74384934e-01     5.08022368e-01     0.00000000e+00    
           4.75027919e-01     5.09664834e-01     0.00000000e+00    
           4.75028187e-01     5.13165236e-01     0.00000000e+00    
           4.74385172e-01     5.14807761e-01     0.00000000e+00    
           4.73357558e-01     5.16241372e-01     0.00000000e+00    
           4.72008646e-01     5.17377913e-01     0.00000000e+00    
           4.70421433e-01     5.18147290e-01     0.00000000e+00    
           4.68693614e-01     5.18502235e-01     0.00000000e+00    
           4.66931641e-01     5.18420875e-01     0.00000000e+00    
           5.32303810e-01     5.16964078e-01     0.00000000e+00    
           5.31043947e-01     5.15658796e-01     0.00000000e+00    
           5.30155540e-01     5.14077127e-01     0.00000000e+00    
           5.29696345e-01     5.12322068e-01     0.00000000e+00    
           5.29696345e-01     5.10507941e-01     0.00000000e+00    
           5.30155540e-01     5.08752882e-01     0.00000000e+00    
           5.31043947e-01     5.07171214e-01     0.00000000e+00    
           5.32303810e-01     5.05865932e-01     0.00000000e+00    
           4.68517244e-01     5.32760799e-01     0.00000000e+00    
           4.68509018e-01     5.30844629e-01     0.00000000e+00    
           4.68960851e-01     5.28982460e-01     0.00000000e+00    
           4.69846308e-01     5.27283132e-01     0.00000000e+00    
           4.71113682e-01     5.25845945e-01     0.00000000e+00    
           4.72688884e-01     5.24754822e-01     0.00000000e+00    
           4.74479854e-01     5.24073541e-01     0.00000000e+00    
           4.78284091e-01     5.24073601e-01     0.00000000e+00    
           4.80075032e-01     5.24754822e-01     0.00000000e+00    
           4.81650203e-01     5.25845885e-01     0.00000000e+00    
           4.82917547e-01     5.27283013e-01     0.00000000e+00    
           4.83803004e-01     5.28982282e-01     0.00000000e+00    
           4.84254897e-01     5.30844331e-01     0.00000000e+00    
           4.84246761e-01     5.32760441e-01     0.00000000e+00    
           4.82887864e-01     4.67691004e-01     0.00000000e+00    
           4.81620818e-01     4.69110936e-01     0.00000000e+00    
           4.80051905e-01     4.70188022e-01     0.00000000e+00    
           4.78271484e-01     4.70860153e-01     0.00000000e+00    
           4.76382166e-01     4.71088618e-01     0.00000000e+00    
           4.74492878e-01     4.70860243e-01     0.00000000e+00    
           4.72712427e-01     4.70188200e-01     0.00000000e+00    
           4.71143454e-01     4.69111174e-01     0.00000000e+00    
           4.69876349e-01     4.67691302e-01     0.00000000e+00    
           4.88103986e-01     5.33086061e-01     0.00000000e+00    
           4.87431526e-01     5.31323195e-01     0.00000000e+00    
           4.87231195e-01     5.29447019e-01     0.00000000e+00    
           4.87516224e-01     5.27581930e-01     0.00000000e+00    
           4.88267750e-01     5.25851250e-01     0.00000000e+00    
           4.89436030e-01     5.24369657e-01     0.00000000e+00    
           4.90943670e-01     5.23235261e-01     0.00000000e+00    
           4.92690891e-01     5.22523046e-01     0.00000000e+00    
           4.96432930e-01     5.22523701e-01     0.00000000e+00    
           4.98180002e-01     5.23235798e-01     0.00000000e+00    
           4.99687493e-01     5.24370134e-01     0.00000000e+00    
           5.00855684e-01     5.25851607e-01     0.00000000e+00    
           5.01607120e-01     5.27582109e-01     0.00000000e+00    
           5.01892149e-01     5.29447079e-01     0.00000000e+00    
           5.01691818e-01     5.31323016e-01     0.00000000e+00    
           5.01019418e-01     5.33085763e-01     0.00000000e+00    
           4.98371124e-01     4.67269689e-01     0.00000000e+00    
           4.96539861e-01     4.68064904e-01     0.00000000e+00    
           4.94562000e-01     4.68336672e-01     0.00000000e+00    
           4.92584139e-01     4.68064904e-01     0.00000000e+00    
           4.90752876e-01     4.67269689e-01     0.00000000e+00    
           5.32269001e-01     4.75995690e-01     0.00000000e+00    
           5.31541944e-01     4.77750987e-01     0.00000000e+00    
           5.30385315e-01     4.79258329e-01     0.00000000e+00    
           5.28877974e-01     4.80414927e-01     0.00000000e+00    
[...]
      <PointData>
        <DataArray type="Float32" Name="Displacement" NumberOfComponents="3">
           1.15500286e-03     6.19809376e-04     0.00000000e+00    
           1.15319923e-03     8.26241798e-04     0.00000000e+00    
           1.28065539e-03     6.58487028e-04     0.00000000e+00    
           1.06721104e-03     6.45585358e-04     0.00000000e+00    
           1.17486133e-03     5.11436956e-04     0.00000000e+00    
           1.06721104e-03     6.45585358e-04     0.00000000e+00    
           1.28065539e-03     6.58487028e-04     0.00000000e+00    
           1.62877212e-03     7.89568236e-04     0.00000000e+00    
           1.63014431e-03     1.01355964e-03     0.00000000e+00    
           1.44877157e-03     8.90653057e-04     0.00000000e+00    
          -1.98557336e-05     1.88559643e-04     0.00000000e+00    
          -2.12278446e-05    -3.54317526e-05     0.00000000e+00    
           1.56909169e-03     8.19589186e-04     0.00000000e+00    
           1.56890240e-03     8.86740687e-04     0.00000000e+00    
           1.47111027e-03     8.38552078e-04     0.00000000e+00    
          -8.10976562e-05     6.17407059e-05     0.00000000e+00    
          -8.09082776e-05    -5.41080408e-06     0.00000000e+00    
           3.65819142e-04     6.93535912e-05     0.00000000e+00    
           3.61355749e-04     3.53757845e-04     0.00000000e+00    
           1.37744658e-03     7.03792844e-04     0.00000000e+00    
           1.52843480e-03     7.15473143e-04     0.00000000e+00    
           1.45644241e-03     9.02801403e-04     0.00000000e+00    
           1.52843480e-03     7.15473143e-04     0.00000000e+00    
           1.37744658e-03     7.03792844e-04     0.00000000e+00    
           1.28747581e-03     6.11419382e-04     0.00000000e+00    
           1.28254981e-03     8.36115971e-04     0.00000000e+00    
           1.49772607e-03     8.24388757e-04     0.00000000e+00    
           1.50243728e-03     9.21680359e-04     0.00000000e+00    
           5.92358760e-04     3.45006149e-04     0.00000000e+00    
           5.84944210e-04     4.45623911e-04     0.00000000e+00    
           5.20626490e-04     3.72912851e-04     0.00000000e+00    
           4.12304216e-04     3.65853572e-04     0.00000000e+00    
           4.71869513e-04     2.30502817e-04     0.00000000e+00    
           4.12304216e-04     3.65853572e-04     0.00000000e+00    
           5.20626490e-04     3.72912851e-04     0.00000000e+00    
           8.85608140e-04     4.10359411e-04     0.00000000e+00    
           8.86530848e-04     5.22627495e-04     0.00000000e+00    
           5.02765703e-04     2.20257614e-04     0.00000000e+00    
           4.95428452e-04     3.22817854e-04     0.00000000e+00    
           8.86781316e-04     4.75742214e-04     0.00000000e+00    
           8.89879011e-04     5.37839660e-04     0.00000000e+00    
           9.87309497e-04     4.77455498e-04     0.00000000e+00    
           9.86236846e-04     6.59386569e-04     0.00000000e+00    
           9.06319940e-04     5.15730237e-04     0.00000000e+00    
           9.09767870e-04     5.80113090e-04     0.00000000e+00    
           7.09716231e-04     3.06567817e-04     0.00000000e+00    
           7.05872022e-04     5.27070777e-04     0.00000000e+00    
           1.64999999e-03     8.24999996e-04     0.00000000e+00    
           0.00000000e+00     0.00000000e+00     0.00000000e+00    
           0.00000000e+00     0.00000000e+00     0.00000000e+00    
           1.64999999e-03     8.24999996e-04     0.00000000e+00    
           1.18600379e-03     6.25877467e-04     0.00000000e+00    
           1.21468597e-03     6.38211670e-04     0.00000000e+00    
           1.23897125e-03     6.56424614e-04     0.00000000e+00    
           1.25703111e-03     6.79414079e-04     0.00000000e+00    
           1.26781256e-03     7.05964223e-04     0.00000000e+00    
           1.27101759e-03     7.33408262e-04     0.00000000e+00    
           1.26689696e-03     7.60078139e-04     0.00000000e+00    
           1.25516963e-03     7.84253178e-04     0.00000000e+00    
           1.23554433e-03     8.04127252e-04     0.00000000e+00    
           1.21081003e-03     8.17516760e-04     0.00000000e+00    
           1.18296838e-03     8.25071358e-04     0.00000000e+00    
           1.12326245e-03     8.20624409e-04     0.00000000e+00    
           1.09500822e-03     8.08809651e-04     0.00000000e+00    
           1.07106532e-03     7.90738384e-04     0.00000000e+00    
           1.05297472e-03     7.68135244e-04     0.00000000e+00    
           1.04186079e-03     7.42625503e-04     0.00000000e+00    
           1.03844597e-03     7.16596609e-04     0.00000000e+00    
           1.04181946e-03     6.91644265e-04     0.00000000e+00    
           1.05135445e-03     6.68406428e-04     0.00000000e+00    
           1.06720987e-03     6.47586887e-04     0.00000000e+00    
           1.09107373e-03     6.31294562e-04     0.00000000e+00    
           1.12211460e-03     6.21626619e-04     0.00000000e+00    
           1.06002658e-03     6.21239364e-04     0.00000000e+00    
           1.05946860e-03     5.95925492e-04     0.00000000e+00    
           1.06530485e-03     5.71310986e-04     0.00000000e+00    
           1.07809156e-03     5.49476244e-04     0.00000000e+00    
           1.09724875e-03     5.32008533e-04     0.00000000e+00    
           1.12078805e-03     5.19582944e-04     0.00000000e+00    
           1.14694983e-03     5.13152045e-04     0.00000000e+00    
           1.20270974e-03     5.15813706e-04     0.00000000e+00    
           1.22871576e-03     5.26165124e-04     0.00000000e+00    
           1.25149218e-03     5.41890331e-04     0.00000000e+00    
           1.26924005e-03     5.61895431e-04     0.00000000e+00    
           1.28155167e-03     5.84871974e-04     0.00000000e+00    
           1.28794194e-03     6.09312265e-04     0.00000000e+00    
           1.28740817e-03     6.34364667e-04     0.00000000e+00    
           1.26546132e-03     6.81309728e-04     0.00000000e+00    
           1.24182843e-03     6.99311902e-04     0.00000000e+00    
           1.21366093e-03     7.10489112e-04     0.00000000e+00    
           1.18396350e-03     7.14813301e-04     0.00000000e+00    
           1.15448725e-03     7.12010486e-04     0.00000000e+00    
           1.12587120e-03     7.03263970e-04     0.00000000e+00    
           1.10083842e-03     6.88563741e-04     0.00000000e+00    
           1.08105887e-03     6.68588968e-04     0.00000000e+00    
           1.59822695e-03     1.01747492e-03     0.00000000e+00    
           1.56566827e-03     1.01528026e-03     0.00000000e+00    
           1.53410470e-03     1.00671011e-03     0.00000000e+00    
           1.50575070e-03     9.91612207e-04     0.00000000e+00    
           1.48217974e-03     9.70931374e-04     0.00000000e+00    
           1.46432163e-03     9.46384796e-04     0.00000000e+00    
           1.45282422e-03     9.19183774e-04     0.00000000e+00    
           1.45214400e-03     8.61905457e-04     0.00000000e+00    
           1.46354164e-03     8.34845414e-04     0.00000000e+00    
           1.48255343e-03     8.11267644e-04     0.00000000e+00    
           1.50809600e-03     7.93133804e-04     0.00000000e+00    
           1.53621996e-03     7.82323768e-04     0.00000000e+00    
           1.56551157e-03     7.78965070e-04     0.00000000e+00    
           1.59678468e-03     7.80984119e-04     0.00000000e+00    
           8.61641729e-06    -2.06126315e-05     0.00000000e+00    
           3.37180718e-05    -1.18605662e-07     0.00000000e+00    
           5.27441989e-05     2.49634832e-05     0.00000000e+00    
           6.47647685e-05     5.26479453e-05     0.00000000e+00    
           6.86678904e-05     8.19210836e-05     0.00000000e+00    
           6.53890966e-05     1.09899003e-04     0.00000000e+00    
           5.38675413e-05     1.36971896e-04     0.00000000e+00    
           3.54001349e-05     1.60300071e-04     0.00000000e+00    
           9.42504266e-06     1.77883790e-04     0.00000000e+00    
           1.55644421e-03     8.91341944e-04     0.00000000e+00    
           1.54304493e-03     8.92058422e-04     0.00000000e+00    
           1.52859848e-03     8.90199037e-04     0.00000000e+00    
           1.51325914e-03     8.86000867e-04     0.00000000e+00    
           1.49803632e-03     8.79959378e-04     0.00000000e+00    
           1.48592703e-03     8.70997319e-04     0.00000000e+00    
           1.47748797e-03     8.60367436e-04     0.00000000e+00    
           1.47245883e-03     8.49542092e-04     0.00000000e+00    
           1.47337280e-03     8.28094722e-04     0.00000000e+00    
           1.47952721e-03     8.18912231e-04     0.00000000e+00    
           1.48877141e-03     8.12064856e-04     0.00000000e+00    
           1.50001014e-03     8.07400735e-04     0.00000000e+00    
           1.51218311e-03     8.05638207e-04     0.00000000e+00    
           1.52600778e-03     8.05490883e-04     0.00000000e+00    
           1.54091651e-03     8.07712146e-04     0.00000000e+00    
           1.55603723e-03     8.12195183e-04     0.00000000e+00    
          -7.04178383e-05     4.78788206e-06     0.00000000e+00    
          -6.37179764e-05     1.65253095e-05     0.00000000e+00    
          -6.12838994e-05     2.88971332e-05     0.00000000e+00    
          -6.35381512e-05     4.14335009e-05     0.00000000e+00    
          -7.01377576e-05     5.28579840e-05     0.00000000e+00    
           4.05952946e-04     7.56111986e-05     0.00000000e+00    
           4.42531280e-04     9.15453711e-05     0.00000000e+00    
           4.73358989e-04     1.15800089e-04     0.00000000e+00    
           4.96894645e-04     1.46087914e-04     0.00000000e+00    
           5.12195635e-04     1.80753559e-04     0.00000000e+00    
           5.17708191e-04     2.17980865e-04     0.00000000e+00    
           5.13882784e-04     2.55519757e-04     0.00000000e+00    
           4.98959329e-04     2.89769407e-04     0.00000000e+00    
           4.73844062e-04     3.18811013e-04     0.00000000e+00    
           4.40249685e-04     3.40125698e-04     0.00000000e+00    
           4.01606027e-04     3.52031202e-04     0.00000000e+00    
           3.20795720e-04     3.46873130e-04     0.00000000e+00    
           2.83236761e-04     3.30743525e-04     0.00000000e+00    
           2.51154444e-04     3.06304399e-04     0.00000000e+00    
           2.26909120e-04     2.75002298e-04     0.00000000e+00    
           2.11996492e-04     2.39229121e-04     0.00000000e+00    
           2.07289500e-04     2.01799936e-04     0.00000000e+00    
           2.12349914e-04     1.65105739e-04     0.00000000e+00    
           2.27779747e-04     1.31540932e-04     0.00000000e+00    
           2.53180828e-04     1.03678241e-04     0.00000000e+00    
           2.86751951e-04     8.38728229e-05     0.00000000e+00    
           3.25260131e-04     7.21786273e-05     0.00000000e+00    
           1.54892984e-03     7.35879294e-04     0.00000000e+00    
           1.56378548e-03     7.60537223e-04     0.00000000e+00    
           1.57203083e-03     7.88141624e-04     0.00000000e+00    
           1.57282711e-03     8.16583575e-04     0.00000000e+00    
           1.56595116e-03     8.43453046e-04     0.00000000e+00    
           1.55186967e-03     8.66893679e-04     0.00000000e+00    
           1.53201050e-03     8.84577865e-04     0.00000000e+00    
           1.50907144e-03     8.96240585e-04     0.00000000e+00    
           1.48422935e-03     9.01964202e-04     0.00000000e+00    
           1.42593752e-03     8.98342056e-04     0.00000000e+00    
           1.39554264e-03     8.87880800e-04     0.00000000e+00    
           1.36935385e-03     8.70911870e-04     0.00000000e+00    
           1.34903111e-03     8.49086442e-04     0.00000000e+00    
           1.33586768e-03     8.23983981e-04     0.00000000e+00    
           1.32942980e-03     7.97971850e-04     0.00000000e+00    
           1.32998603e-03     7.71635561e-04     0.00000000e+00    
           1.33742369e-03     7.46085076e-04     0.00000000e+00    
           1.35334837e-03     7.22738914e-04     0.00000000e+00    
           1.40267960e-03     6.92630536e-04     0.00000000e+00    
           1.42922183e-03     6.87426771e-04     0.00000000e+00    
           1.45593449e-03     6.87427353e-04     0.00000000e+00    
           1.48189196e-03     6.92574191e-04     0.00000000e+00    
           1.50640530e-03     7.01931480e-04     0.00000000e+00    
           1.31797302e-03     6.16746082e-04     0.00000000e+00    
           1.34672923e-03     6.28292852e-04     0.00000000e+00    
           1.37245096e-03     6.45123306e-04     0.00000000e+00    
           1.39213656e-03     6.66888314e-04     0.00000000e+00    
           1.40582561e-03     6.91415509e-04     0.00000000e+00    
           1.41284382e-03     7.17245392e-04     0.00000000e+00    
           1.41238933e-03     7.43933080e-04     0.00000000e+00    
           1.40518416e-03     7.70547835e-04     0.00000000e+00    
           1.39041047e-03     7.94674619e-04     0.00000000e+00    
           1.36834395e-03     8.14828381e-04     0.00000000e+00    
           1.34128169e-03     8.28621851e-04     0.00000000e+00    
           1.31244631e-03     8.34997860e-04     0.00000000e+00    
           1.25316589e-03     8.30631121e-04     0.00000000e+00    
           1.22583064e-03     8.19296285e-04     0.00000000e+00    
           1.20161695e-03     8.02641618e-04     0.00000000e+00    
           1.18231238e-03     7.81213923e-04     0.00000000e+00    
           1.16854382e-03     7.56084104e-04     0.00000000e+00    
           1.16108079e-03     7.28709158e-04     0.00000000e+00    
           1.16122770e-03     7.01173267e-04     0.00000000e+00    
           1.16799306e-03     6.75131218e-04     0.00000000e+00    
           1.18221471e-03     6.51815149e-04     0.00000000e+00    
           1.20299053e-03     6.32857671e-04     0.00000000e+00    
           1.22864963e-03     6.19671191e-04     0.00000000e+00    
           1.25731772e-03     6.12547214e-04     0.00000000e+00    
           1.51586020e-03     8.27619515e-04     0.00000000e+00    
           1.53351284e-03     8.34595237e-04     0.00000000e+00    
           1.54776766e-03     8.45208357e-04     0.00000000e+00    
           1.55741035e-03     8.58571613e-04     0.00000000e+00    
           1.56203285e-03     8.73223180e-04     0.00000000e+00    
           1.56149373e-03     8.87991802e-04     0.00000000e+00    
           1.55581138e-03     9.01717925e-04     0.00000000e+00    
           1.54548429e-03     9.12644085e-04     0.00000000e+00    
           1.53222959e-03     9.19647806e-04     0.00000000e+00    
           1.51809840e-03     9.21667030e-04     0.00000000e+00    
           1.48557045e-03     9.18865087e-04     0.00000000e+00    
           1.46882597e-03     9.12622025e-04     0.00000000e+00    
           1.45455555e-03     9.02423286e-04     0.00000000e+00    
           1.44400913e-03     8.89192452e-04     0.00000000e+00    
           1.43847975e-03     8.73246754e-04     0.00000000e+00    
           1.43897790e-03     8.57116072e-04     0.00000000e+00    
           1.44432974e-03     8.42736510e-04     0.00000000e+00    
           1.45451049e-03     8.31647660e-04     0.00000000e+00    
           1.46702630e-03     8.25474912e-04     0.00000000e+00    
           1.48084050e-03     8.23829614e-04     0.00000000e+00    
           6.09036535e-04     3.48053931e-04     0.00000000e+00    
           6.23913307e-04     3.54315940e-04     0.00000000e+00    
           6.36266428e-04     3.63881525e-04     0.00000000e+00    
           6.45684835e-04     3.76419281e-04     0.00000000e+00    
           6.50761300e-04     3.90230474e-04     0.00000000e+00    
           6.52031158e-04     4.04011109e-04     0.00000000e+00    
           6.49633119e-04     4.16754425e-04     0.00000000e+00    
           6.42922358e-04     4.28255880e-04     0.00000000e+00    
           6.31001079e-04     4.37016104e-04     0.00000000e+00    
           6.16766629e-04     4.42349585e-04     0.00000000e+00    
           6.00998406e-04     4.45388403e-04     0.00000000e+00    
           5.69036987e-04     4.42765857e-04     0.00000000e+00    
           5.54559287e-04     4.36285045e-04     0.00000000e+00    
           5.42494352e-04     4.27193445e-04     0.00000000e+00    
           5.33206621e-04     4.15853749e-04     0.00000000e+00    
           5.27249416e-04     4.03171580e-04     0.00000000e+00    
           5.24964998e-04     3.89486697e-04     0.00000000e+00    
           5.27416938e-04     3.75807926e-04     0.00000000e+00    
           5.34324034e-04     3.63272353e-04     0.00000000e+00    
           5.45735122e-04     3.53594689e-04     0.00000000e+00    
           5.60100016e-04     3.47226538e-04     0.00000000e+00    
           5.76001126e-04     3.44616681e-04     0.00000000e+00    
           3.96763877e-04     3.51913797e-04     0.00000000e+00    
           3.85075109e-04     3.34968965e-04     0.00000000e+00    
           3.78442550e-04     3.15614307e-04     0.00000000e+00    
           3.77472810e-04     2.95070175e-04     0.00000000e+00    
           3.82226921e-04     2.75706436e-04     0.00000000e+00    
           3.94195900e-04     2.57216947e-04     0.00000000e+00    
           4.11232235e-04     2.42822411e-04     0.00000000e+00    
           4.30917571e-04     2.34729552e-04     0.00000000e+00    
           4.51134227e-04     2.30723803e-04     0.00000000e+00    
           4.92651481e-04     2.34725157e-04     0.00000000e+00    
           5.11888589e-04     2.42922935e-04     0.00000000e+00    
           5.29257115e-04     2.55384948e-04     0.00000000e+00    
           5.43340109e-04     2.71265628e-04     0.00000000e+00    
           5.53421909e-04     2.89843680e-04     0.00000000e+00    
           5.57728403e-04     3.09345662e-04     0.00000000e+00    
           5.56676241e-04     3.28370894e-04     0.00000000e+00    
           5.50127763e-04     3.46105517e-04     0.00000000e+00    
           5.37832268e-04     3.61355138e-04     0.00000000e+00    
           5.00140886e-04     3.80014768e-04     0.00000000e+00    
           4.77811467e-04     3.83142207e-04     0.00000000e+00    
           4.54399938e-04     3.82523023e-04     0.00000000e+00    
           4.31952998e-04     3.76631389e-04     0.00000000e+00    
           9.02145403e-04     4.13980539e-04     0.00000000e+00    
           9.17481317e-04     4.20653552e-04     0.00000000e+00    
           9.30854876e-04     4.30010725e-04     0.00000000e+00    
           9.42097511e-04     4.41702403e-04     0.00000000e+00    
           9.49912239e-04     4.55700239e-04     0.00000000e+00    
           9.52955626e-04     4.71499428e-04     0.00000000e+00    
           9.50959977e-04     4.87762678e-04     0.00000000e+00    
           9.44208878e-04     5.02072275e-04     0.00000000e+00    
           9.33851697e-04     5.12737955e-04     0.00000000e+00    
           9.20969178e-04     5.19332418e-04     0.00000000e+00    
           9.05177963e-04     5.21984766e-04     0.00000000e+00    
           8.67075927e-04     5.19393769e-04     0.00000000e+00    
           8.49172880e-04     5.11944643e-04     0.00000000e+00    
           8.34019796e-04     5.00834838e-04     0.00000000e+00    
           8.22866510e-04     4.86776349e-04     0.00000000e+00    
           8.16372863e-04     4.71505249e-04     0.00000000e+00    
           8.14140833e-04     4.56172042e-04     0.00000000e+00    
           8.16187123e-04     4.41979239e-04     0.00000000e+00    
           8.23236478e-04     4.29300999e-04     0.00000000e+00    
           8.35531100e-04     4.19020042e-04     0.00000000e+00    