<?xml version="1.0"?>
<VTKFile type="UnstructuredGrid" version="0.1">
  <UnstructuredGrid>
    <Piece NumberOfPoints="1034" NumberOfCells="1614">
      <Points>
        <DataArray type="Float32" NumberOfComponents="3">
           5.21582007e-01     5.11657000e-01     0.00000000e+00    
           5.07319987e-01     5.11657000e-01     0.00000000e+00    
           4.65243995e-01     5.17907977e-01     0.00000000e+00    
           4.65243995e-01     5.04921973e-01     0.00000000e+00    
           4.75246996e-01     5.11415005e-01     0.00000000e+00    
           5.33852994e-01     5.04921973e-01     0.00000000e+00    
           5.33852994e-01     5.17907977e-01     0.00000000e+00    
           4.83779997e-01     5.34618974e-01     0.00000000e+00    
           4.68984991e-01     5.34618974e-01     0.00000000e+00    
           4.76381987e-01     5.23841977e-01     0.00000000e+00    
           4.68984991e-01     4.66010004e-01     0.00000000e+00    
           4.83779997e-01     4.66010004e-01     0.00000000e+00    
           4.99920011e-01     5.34618974e-01     0.00000000e+00    
           4.89203990e-01     5.34618974e-01     0.00000000e+00    
           4.94562000e-01     5.22280991e-01     0.00000000e+00    
           4.89203990e-01     4.66010004e-01     0.00000000e+00    
           4.99920011e-01     4.66010004e-01     0.00000000e+00    
           5.32517016e-01     4.74112004e-01     0.00000000e+00    
           5.17961025e-01     4.74112004e-01     0.00000000e+00    
           5.33852994e-01     5.19801974e-01     0.00000000e+00    
           5.33852994e-01     5.29603004e-01     0.00000000e+00    
           5.19536972e-01     5.24702013e-01     0.00000000e+00    
           4.65243995e-01     5.29603004e-01     0.00000000e+00    
           4.65243995e-01     5.19801974e-01     0.00000000e+00    
           4.92487997e-01     5.17117977e-01     0.00000000e+00    
           4.76904988e-01     5.17117977e-01     0.00000000e+00    
           5.17996013e-01     5.27033985e-01     0.00000000e+00    
           5.04473984e-01     5.27033985e-01     0.00000000e+00    
           5.08446991e-01     4.83435005e-01     0.00000000e+00    
           4.94414002e-01     4.83435005e-01     0.00000000e+00    
           4.65243995e-01     4.83101994e-01     0.00000000e+00    
           4.65243995e-01     4.74415004e-01     0.00000000e+00    
           4.78336990e-01     4.78758007e-01     0.00000000e+00    
           5.33852994e-01     4.74415004e-01     0.00000000e+00    
           5.33852994e-01     4.83101994e-01     0.00000000e+00    
           4.80668008e-01     4.95810986e-01     0.00000000e+00    
           4.66084987e-01     4.95810986e-01     0.00000000e+00    
           4.93930012e-01     4.79214013e-01     0.00000000e+00    
           4.78967011e-01     4.79214013e-01     0.00000000e+00    
           5.09284973e-01     4.97658014e-01     0.00000000e+00    
           4.95503992e-01     4.97658014e-01     0.00000000e+00    
           5.33011973e-01     5.01751006e-01     0.00000000e+00    
           5.17829001e-01     5.01751006e-01     0.00000000e+00    
           4.95451003e-01     5.00564992e-01     0.00000000e+00    
           4.80922014e-01     5.00564992e-01     0.00000000e+00    
           5.25367022e-01     4.88312006e-01     0.00000000e+00    
           5.09521008e-01     4.88312006e-01     0.00000000e+00    
           4.65243995e-01     5.34618974e-01     0.00000000e+00    
           4.65243995e-01     4.66010004e-01     0.00000000e+00    
           5.33852994e-01     4.66010004e-01     0.00000000e+00    
           5.33852994e-01     5.34618974e-01     0.00000000e+00    
           5.21338999e-01     5.13502657e-01     0.00000000e+00    
           5.20626605e-01     5.15222490e-01     0.00000000e+00    
           5.19493401e-01     5.16699374e-01     0.00000000e+00    
           5.18016517e-01     5.17832637e-01     0.00000000e+00    
           5.16296625e-01     5.18545032e-01     0.00000000e+00    
           5.14451027e-01     5.18787980e-01     0.00000000e+00    
           5.12605369e-01     5.18545032e-01     0.00000000e+00    
           5.10885477e-01     5.17832637e-01     0.00000000e+00    
           5.09408593e-01     5.16699374e-01     0.00000000e+00    
           5.08275390e-01     5.15222490e-01     0.00000000e+00    
           5.07562995e-01     5.13502657e-01     0.00000000e+00    
           5.07562995e-01     5.09811342e-01     0.00000000e+00    
           5.08275390e-01     5.08091509e-01     0.00000000e+00    
           5.09408593e-01     5.06614625e-01     0.00000000e+00    
           5.10885477e-01     5.05481362e-01     0.00000000e+00    
           5.12605369e-01     5.04768968e-01     0.00000000e+00    
           5.14451027e-01     5.04526019e-01     0.00000000e+00    
           5.16296625e-01     5.04768968e-01     0.00000000e+00    
           5.18016517e-01     5.05481362e-01     0.00000000e+00    
           5.19493401e-01     5.06614625e-01     0.00000000e+00    
           5.20626605e-01     5.08091509e-01     0.00000000e+00    
           5.21338999e-01     5.09811342e-01     0.00000000e+00    
           4.66931671e-01     5.04409373e-01     0.00000000e+00    
           4.68693614e-01     5.04328012e-01     0.00000000e+00    
           4.70421344e-01     5.04682958e-01     0.00000000e+00    
           4.72008497e-01     5.05452335e-01     0.00000000e+00    
           4.73357379e-01     5.06588817e-01     0.00000000e+00    
           4.74384934e-01     5.08022368e-01     0.00000000e+00    
           4.75027919e-01     5.09664834e-01     0.00000000e+00    
           4.75028187e-01     5.13165236e-01     0.00000000e+00    
           4.74385172e-01     5.14807761e-01     0.00000000e+00    
           4.73357558e-01     5.16241372e-01     0.00000000e+00    
           4.72008646e-01     5.17377913e-01     0.00000000e+00    
           4.70421433e-01     5.18147290e-01     0.00000000e+00    
           4.68693614e-01     5.18502235e-01     0.00000000e+00    
           4.66931641e-01     5.18420875e-01     0.00000000e+00    
           5.32303810e-01     5.16964078e-01     0.00000000e+00    
           5.31043947e-01     5.15658796e-01     0.00000000e+00    
           5.30155540e-01     5.14077127e-01     0.00000000e+00    
           5.29696345e-01     5.12322068e-01     0.00000000e+00    
           5.29696345e-01     5.10507941e-01     0.00000000e+00    
           5.30155540e-01     5.08752882e-01     0.00000000e+00    
           5.31043947e-01     5.07171214e-01     0.00000000e+00    
           5.32303810e-01     5.05865932e-01     0.00000000e+00    
           4.68517244e-01     5.32760799e-01     0.00000000e+00    
           4.68509018e-01     5.30844629e-01     0.00000000e+00    
           4.68960851e-01     5.28982460e-01     0.00000000e+00    
           4.69846308e-01     5.27283132e-01     0.00000000e+00    
           4.71113682e-01     5.25845945e-01     0.00000000e+00    
           4.72688884e-01     5.24754822e-01     0.00000000e+00    
           4.74479854e-01     5.24073541e-01     0.00000000e+00    
           4.78284091e-01     5.24073601e-01     0.00000000e+00    
           4.80075032e-01     5.24754822e-01     0.00000000e+00    
           4.81650203e-01     5.25845885e-01     0.00000000e+00    
           4.82917547e-01     5.27283013e-01     0.00000000e+00    
           4.83803004e-01     5.28982282e-01     0.00000000e+00    
           4.84254897e-01     5.30844331e-01     0.00000000e+00    
           4.84246761e-01     5.32760441e-01     0.00000000e+00    
           4.82887864e-01     4.67691004e-01     0.00000000e+00    
           4.81620818e-01     4.69110936e-01     0.00000000e+00    
           4.80051905e-01     4.70188022e-01     0.00000000e+00    
           4.78271484e-01     4.70860153e-01     0.00000000e+00    
           4.76382166e-01     4.71088618e-01     0.00000000e+00    
           4.74492878e-01     4.70860243e-01     0.00000000e+00    
           4.72712427e-01     4.70188200e-01     0.00000000e+00    
           4.71143454e-01     4.69111174e-01     0.00000000e+00    
           4.69876349e-01     4.67691302e-01     0.00000000e+00    
           4.88103986e-01     5.33086061e-01     0.00000000e+00    
           4.87431526e-01     5.31323195e-01     0.00000000e+00    
           4.87231195e-01     5.29447019e-01     0.00000000e+00    
           4.87516224e-01     5.27581930e-01     0.00000000e+00    
           4.88267750e-01     5.25851250e-01     0.00000000e+00    
           4.89436030e-01     5.24369657e-01     0.00000000e+00    
           4.90943670e-01     5.23235261e-01     0.00000000e+00    
           4.92690891e-01     5.22523046e-01     0.00000000e+00    
           4.96432930e-01     5.22523701e-01     0.00000000e+00    
           4.98180002e-01     5.23235798e-01     0.00000000e+00    
           4.99687493e-01     5.24370134e-01     0.00000000e+00    
           5.00855684e-01     5.25851607e-01     0.00000000e+00    
           5.01607120e-01     5.27582109e-01     0.00000000e+00    
           5.01892149e-01     5.29447079e-01     0.00000000e+00    
           5.01691818e-01     5.31323016e-01     0.00000000e+00    
           5.01019418e-01     5.33085763e-01     0.00000000e+00    
           4.98371124e-01     4.67269689e-01     0.00000000e+00    
           4.96539861e-01     4.68064904e-01     0.00000000e+00    
           4.94562000e-01     4.68336672e-01     0.00000000e+00    
           4.92584139e-01     4.68064904e-01     0.00000000e+00    
           4.90752876e-01     4.67269689e-01     0.00000000e+00    
           5.32269001e-01     4.75995690e-01     0.00000000e+00    
           5.31541944e-01     4.77750987e-01     0.00000000e+00    
           5.30385315e-01     4.79258329e-01     0.00000000e+00    
           5.28877974e-01     4.80414927e-01     0.00000000e+00    
[...]
      <PointData>
        <DataArray type="Float32" Name="Displacement" NumberOfComponents="3">
           2.01413946e-04     9.64131468e-05     0.00000000e+00    
           2.01033661e-04     1.33735128e-04     0.00000000e+00    
           2.16510191e-04     1.01091340e-04     0.00000000e+00    
           1.81591138e-04     9.47113513e-05     0.00000000e+00    
           1.99551214e-04     8.15631574e-05     0.00000000e+00    
           1.81591138e-04     9.47113513e-05     0.00000000e+00    
           2.16510191e-04     1.01091340e-04     0.00000000e+00    
           2.99553678e-04     1.27819119e-04     0.00000000e+00    
           2.99750420e-04     1.71797670e-04     0.00000000e+00    
           2.60824192e-04     1.46376071e-04     0.00000000e+00    
          -2.49591039e-07     2.17976722e-05     0.00000000e+00    
          -4.46322900e-07    -2.21808823e-05     0.00000000e+00    
           2.82498426e-04     1.22415702e-04     0.00000000e+00    
           2.83545931e-04     1.36604242e-04     0.00000000e+00    
           2.58573942e-04     1.23927399e-04     0.00000000e+00    
          -1.64540725e-05    -1.33957583e-05     0.00000000e+00    
          -1.75015848e-05    -2.75842922e-05     0.00000000e+00    
           5.51365665e-05     1.64213543e-05     0.00000000e+00    
           5.37750020e-05     5.67014868e-05     0.00000000e+00    
           2.43395960e-04     1.16975287e-04     0.00000000e+00    
           2.75062019e-04     1.22263344e-04     0.00000000e+00    
           2.60482338e-04     1.55385787e-04     0.00000000e+00    
           2.75062019e-04     1.22263344e-04     0.00000000e+00    
           2.43395960e-04     1.16975287e-04     0.00000000e+00    
           2.26966804e-04     9.45461506e-05     0.00000000e+00    
           2.24632837e-04     1.33305963e-04     0.00000000e+00    
           2.68650503e-04     1.37497074e-04     0.00000000e+00    
           2.69822922e-04     1.52734443e-04     0.00000000e+00    
           9.80801269e-05     5.06918004e-05     0.00000000e+00    
           9.40839236e-05     5.86606002e-05     0.00000000e+00    
           7.97076355e-05     4.40623880e-05     0.00000000e+00    
           5.83521032e-05     4.05812352e-05     0.00000000e+00    
           7.05463317e-05     1.87603800e-05     0.00000000e+00    
           5.83521032e-05     4.05812352e-05     0.00000000e+00    
           7.97076355e-05     4.40623880e-05     0.00000000e+00    
           1.45920480e-04     5.67067400e-05     0.00000000e+00    
           1.46467894e-04     7.71499035e-05     0.00000000e+00    
           7.90030754e-05     2.21374194e-05     0.00000000e+00    
           7.48275634e-05     3.16870937e-05     0.00000000e+00    
           1.43311103e-04     6.40427388e-05     0.00000000e+00    
           1.45006896e-04     7.84174990e-05     0.00000000e+00    
           1.67200182e-04     7.37320879e-05     0.00000000e+00    
           1.66872313e-04     1.00736339e-04     0.00000000e+00    
           1.49530097e-04     7.14385387e-05     0.00000000e+00    
           1.50845430e-04     8.44715250e-05     0.00000000e+00    
           1.19865268e-04     5.93717668e-05     0.00000000e+00    
           1.18914315e-04     8.92960088e-05     0.00000000e+00    
           3.00000014e-04     1.50000007e-04     0.00000000e+00    
           0.00000000e+00     0.00000000e+00     0.00000000e+00    
           0.00000000e+00     0.00000000e+00     0.00000000e+00    
           3.00000014e-04     1.50000007e-04     0.00000000e+00    
           2.07934296e-04     9.81537742e-05     0.00000000e+00    
           2.13962208e-04     1.01037214e-04     0.00000000e+00    
           2.18953064e-04     1.04690327e-04     0.00000000e+00    
           2.22550821e-04     1.08776243e-04     0.00000000e+00    
           2.24643882e-04     1.13554372e-04     0.00000000e+00    
           2.25338663e-04     1.18647280e-04     0.00000000e+00    
           2.24511663e-04     1.23574573e-04     0.00000000e+00    
           2.21989816e-04     1.27770661e-04     0.00000000e+00    
           2.17923211e-04     1.31015084e-04     0.00000000e+00    
           2.12867672e-04     1.33035704e-04     0.00000000e+00    
           2.07141464e-04     1.34005255e-04     0.00000000e+00    
           1.94920489e-04     1.32100511e-04     0.00000000e+00    
           1.89207305e-04     1.29487089e-04     0.00000000e+00    
           1.84381192e-04     1.26028244e-04     0.00000000e+00    
           1.80779098e-04     1.22148966e-04     0.00000000e+00    
           1.78720191e-04     1.17866060e-04     0.00000000e+00    
           1.78166389e-04     1.13407310e-04     0.00000000e+00    
           1.78799586e-04     1.08946428e-04     0.00000000e+00    
           1.80474017e-04     1.04618237e-04     0.00000000e+00    
           1.83319717e-04     1.00562764e-04     0.00000000e+00    
           1.88089747e-04     9.77280215e-05     0.00000000e+00    
           1.94522960e-04     9.62586491e-05     0.00000000e+00    
           1.81137395e-04     9.27817455e-05     0.00000000e+00    
           1.81131778e-04     9.01079766e-05     0.00000000e+00    
           1.81974741e-04     8.70645526e-05     0.00000000e+00    
           1.83998840e-04     8.44424139e-05     0.00000000e+00    
           1.86979043e-04     8.25621973e-05     0.00000000e+00    
           1.90738909e-04     8.13883380e-05     0.00000000e+00    
           1.94983731e-04     8.11517748e-05     0.00000000e+00    
           2.03916279e-04     8.25964526e-05     0.00000000e+00    
           2.07739649e-04     8.40332214e-05     0.00000000e+00    
           2.11041523e-04     8.60095533e-05     0.00000000e+00    
           2.13674924e-04     8.85061017e-05     0.00000000e+00    
           2.15714244e-04     9.13960903e-05     0.00000000e+00    
           2.16992426e-04     9.43958439e-05     0.00000000e+00    
           2.17197245e-04     9.76590673e-05     0.00000000e+00    
           2.14055268e-04     1.04473773e-04     0.00000000e+00    
           2.09927210e-04     1.06720639e-04     0.00000000e+00    
           2.04942946e-04     1.07556101e-04     0.00000000e+00    
           1.99636910e-04     1.07217311e-04     0.00000000e+00    
           1.94261287e-04     1.05481340e-04     0.00000000e+00    
           1.88987629e-04     1.02560320e-04     0.00000000e+00    
           1.84324701e-04     9.87348103e-05     0.00000000e+00    
           1.82336807e-04     9.60636607e-05     0.00000000e+00    
           2.92407349e-04     1.71964522e-04     0.00000000e+00    
           2.85225193e-04     1.70867876e-04     0.00000000e+00    
           2.78585474e-04     1.68723549e-04     0.00000000e+00    
           2.72822188e-04     1.65626669e-04     0.00000000e+00    
           2.68072181e-04     1.61563192e-04     0.00000000e+00    
           2.64321425e-04     1.56802504e-04     0.00000000e+00    
           2.61781912e-04     1.51655957e-04     0.00000000e+00    
           2.61356559e-04     1.41008684e-04     0.00000000e+00    
           2.63516675e-04     1.35815368e-04     0.00000000e+00    
           2.67336727e-04     1.31209730e-04     0.00000000e+00    
           2.72579433e-04     1.27588239e-04     0.00000000e+00    
           2.78540159e-04     1.25424573e-04     0.00000000e+00    
           2.85048416e-04     1.24784696e-04     0.00000000e+00    
           2.92175333e-04     1.25528648e-04     0.00000000e+00    
           6.54551104e-06    -1.85707213e-05     0.00000000e+00    
           1.24690014e-05    -1.39209396e-05     0.00000000e+00    
           1.68346342e-05    -8.78658284e-06     0.00000000e+00    
           1.94481891e-05    -3.55521320e-06     0.00000000e+00    
           2.02373449e-05     2.19193453e-06     0.00000000e+00    
           1.95871289e-05     7.79955644e-06     0.00000000e+00    
           1.68525003e-05     1.30572980e-05     0.00000000e+00    
           1.22626097e-05     1.72440541e-05     0.00000000e+00    
           6.36892810e-06     2.01682033e-05     0.00000000e+00    
           2.80565553e-04     1.37426774e-04     0.00000000e+00    
           2.77131912e-04     1.37442970e-04     0.00000000e+00    
           2.73162761e-04     1.36714109e-04     0.00000000e+00    
           2.68705306e-04     1.35052629e-04     0.00000000e+00    
           2.64158938e-04     1.32377972e-04     0.00000000e+00    
           2.60473142e-04     1.29067470e-04     0.00000000e+00    
           2.58569838e-04     1.26493775e-04     0.00000000e+00    
           2.58141401e-04     1.25108141e-04     0.00000000e+00    
           2.59492750e-04     1.22542653e-04     0.00000000e+00    
           2.61016743e-04     1.21211888e-04     0.00000000e+00    
           2.63171270e-04     1.20164004e-04     0.00000000e+00    
           2.65720853e-04     1.19417207e-04     0.00000000e+00    
           2.68544391e-04     1.19122822e-04     0.00000000e+00    
           2.71792174e-04     1.19160155e-04     0.00000000e+00    
           2.75348866e-04     1.19646043e-04     0.00000000e+00    
           2.79070548e-04     1.20673751e-04     0.00000000e+00    
          -1.46246875e-05    -2.52483132e-05     0.00000000e+00    
          -1.26290088e-05    -2.26416487e-05     0.00000000e+00    
          -1.17190766e-05    -2.00422164e-05     0.00000000e+00    
          -1.21526682e-05    -1.73942371e-05     0.00000000e+00    
          -1.38383193e-05    -1.50839651e-05     0.00000000e+00    
           6.13350858e-05     1.80094266e-05     0.00000000e+00    
           6.64274557e-05     2.01470011e-05     0.00000000e+00    
           7.07805448e-05     2.27497276e-05     0.00000000e+00    
           7.46874575e-05     2.66056541e-05     0.00000000e+00    
           7.76220695e-05     3.15522302e-05     0.00000000e+00    
           7.90829072e-05     3.71708666e-05     0.00000000e+00    
           7.92240462e-05     4.34221583e-05     0.00000000e+00    
           7.70747356e-05     4.89040103e-05     0.00000000e+00    
           7.28177329e-05     5.31825972e-05     0.00000000e+00    
           6.70806985e-05     5.58962674e-05     0.00000000e+00    
           6.05361747e-05     5.71180171e-05     0.00000000e+00    
           4.70060186e-05     5.50384320e-05     0.00000000e+00    
           4.07770349e-05     5.20448484e-05     0.00000000e+00    
           3.54909535e-05     4.79857590e-05     0.00000000e+00    
           3.15678953e-05     4.29898173e-05     0.00000000e+00    
           2.92359509e-05     3.72992799e-05     0.00000000e+00    
           2.85545539e-05     3.13592682e-05     0.00000000e+00    
           2.95699774e-05     2.58960299e-05     0.00000000e+00    
           3.23119093e-05     2.13994044e-05     0.00000000e+00    
           3.65938031e-05     1.82158983e-05     0.00000000e+00    
           4.20797041e-05     1.63021487e-05     0.00000000e+00    
           4.84950942e-05     1.56165333e-05     0.00000000e+00    
           2.79039639e-04     1.26155152e-04     0.00000000e+00    
           2.81977904e-04     1.30945962e-04     0.00000000e+00    
           2.83708621e-04     1.36437971e-04     0.00000000e+00    
           2.83951784e-04     1.42040561e-04     0.00000000e+00    
           2.82563473e-04     1.47043160e-04     0.00000000e+00    
           2.79577333e-04     1.50956868e-04     0.00000000e+00    
           2.75542377e-04     1.53511166e-04     0.00000000e+00    
           2.70997873e-04     1.55064583e-04     0.00000000e+00    
           2.66102987e-04     1.55633315e-04     0.00000000e+00    
           2.54119484e-04     1.54053618e-04     0.00000000e+00    
           2.47694115e-04     1.51575805e-04     0.00000000e+00    
           2.42130423e-04     1.48082036e-04     0.00000000e+00    
           2.37919667e-04     1.44064674e-04     0.00000000e+00    
           2.35276500e-04     1.39554220e-04     0.00000000e+00    
           2.33893254e-04     1.34764719e-04     0.00000000e+00    
           2.33834100e-04     1.29725289e-04     0.00000000e+00    
           2.35017564e-04     1.24560698e-04     0.00000000e+00    
           2.38199034e-04     1.20162658e-04     0.00000000e+00    
           2.48907920e-04     1.15442395e-04     0.00000000e+00    
           2.54702027e-04     1.15096962e-04     0.00000000e+00    
           2.60475004e-04     1.15810304e-04     0.00000000e+00    
           2.65877228e-04     1.17501666e-04     0.00000000e+00    
           2.70774704e-04     1.19655830e-04     0.00000000e+00    
           2.33362327e-04     9.63337516e-05     0.00000000e+00    
           2.39570189e-04     9.96305098e-05     0.00000000e+00    
           2.45237374e-04     1.03760278e-04     0.00000000e+00    
           2.48917757e-04     1.07981992e-04     0.00000000e+00    
           2.50852027e-04     1.11398229e-04     0.00000000e+00    
           2.51409743e-04     1.14660448e-04     0.00000000e+00    
           2.51150748e-04     1.18605029e-04     0.00000000e+00    
           2.49851844e-04     1.23073376e-04     0.00000000e+00    
           2.46901502e-04     1.27283667e-04     0.00000000e+00    
           2.42377515e-04     1.30820888e-04     0.00000000e+00    
           2.36732245e-04     1.33007357e-04     0.00000000e+00    
           2.30771650e-04     1.33619542e-04     0.00000000e+00    
           2.18821806e-04     1.31894485e-04     0.00000000e+00    
           2.13812003e-04     1.29797889e-04     0.00000000e+00    
           2.09473394e-04     1.27216874e-04     0.00000000e+00    
           2.05802324e-04     1.23588979e-04     0.00000000e+00    
           2.03003598e-04     1.19139142e-04     0.00000000e+00    
           2.01260220e-04     1.14028342e-04     0.00000000e+00    
           2.01029630e-04     1.08718930e-04     0.00000000e+00    
           2.02381052e-04     1.04024846e-04     0.00000000e+00    
           2.05346631e-04     1.00146441e-04     0.00000000e+00    
           2.09620572e-04     9.71528789e-05     0.00000000e+00    
           2.14810934e-04     9.51384936e-05     0.00000000e+00    
           2.20707836e-04     9.42084807e-05     0.00000000e+00    
           2.72346719e-04     1.38395961e-04     0.00000000e+00    
           2.76003266e-04     1.39944590e-04     0.00000000e+00    
           2.78928812e-04     1.42003570e-04     0.00000000e+00    
           2.80754088e-04     1.44295584e-04     0.00000000e+00    
           2.81455868e-04     1.46641454e-04     0.00000000e+00    
           2.81074346e-04     1.48873762e-04     0.00000000e+00    
           2.79778207e-04     1.50744730e-04     0.00000000e+00    
           2.77799409e-04     1.52061548e-04     0.00000000e+00    
           2.75319326e-04     1.52804059e-04     0.00000000e+00    
           2.72721401e-04     1.52812398e-04     0.00000000e+00    
           2.66661897e-04     1.52379798e-04     0.00000000e+00    
           2.63383641e-04     1.51432905e-04     0.00000000e+00    
           2.60477012e-04     1.49773565e-04     0.00000000e+00    
           2.58200162e-04     1.47548111e-04     0.00000000e+00    
           2.56831554e-04     1.44575853e-04     0.00000000e+00    
           2.56743398e-04     1.41351818e-04     0.00000000e+00    
           2.57927197e-04     1.38729229e-04     0.00000000e+00    
           2.60116620e-04     1.37195544e-04     0.00000000e+00    
           2.62557383e-04     1.36832721e-04     0.00000000e+00    
           2.65257491e-04     1.37055016e-04     0.00000000e+00    
           1.00977268e-04     5.14445601e-05     0.00000000e+00    
           1.03144252e-04     5.18862216e-05     0.00000000e+00    
           1.04969389e-04     5.25980831e-05     0.00000000e+00    
           1.06895815e-04     5.43390706e-05     0.00000000e+00    
           1.08367043e-04     5.71672281e-05     0.00000000e+00    
           1.08479988e-04     5.94158628e-05     0.00000000e+00    
           1.07384534e-04     6.02543805e-05     0.00000000e+00    
           1.05374580e-04     6.06498252e-05     0.00000000e+00    
           1.02855665e-04     6.05838504e-05     0.00000000e+00    
           1.00109501e-04     6.02512300e-05     0.00000000e+00    
           9.70767578e-05     5.96958744e-05     0.00000000e+00    
           9.14979246e-05     5.77313513e-05     0.00000000e+00    
           8.98285361e-05     5.69669064e-05     0.00000000e+00    
           8.88023642e-05     5.63160356e-05     0.00000000e+00    
           8.77270868e-05     5.53158352e-05     0.00000000e+00    
           8.68795978e-05     5.41241898e-05     0.00000000e+00    
           8.64564499e-05     5.28995151e-05     0.00000000e+00    
           8.69088544e-05     5.16653308e-05     0.00000000e+00    
           8.81184897e-05     5.06173710e-05     0.00000000e+00    
           9.00567684e-05     5.00408569e-05     0.00000000e+00    
           9.24778797e-05     4.97978726e-05     0.00000000e+00    
           9.52697228e-05     5.00497845e-05     0.00000000e+00    
           5.55019906e-05     3.88102599e-05     0.00000000e+00    
           5.28841483e-05     3.63240761e-05     0.00000000e+00    
           5.11277140e-05     3.30663788e-05     0.00000000e+00    
           5.03978590e-05     2.91144697e-05     0.00000000e+00    
           5.11541730e-05     2.51598703e-05     0.00000000e+00    
           5.39334396e-05     2.15766613e-05     0.00000000e+00    
           5.78591716e-05     1.92942789e-05     0.00000000e+00    
           6.22027146e-05     1.83788525e-05     0.00000000e+00    
           6.64889958e-05     1.82693238e-05     0.00000000e+00    
           7.42359261e-05     1.96129640e-05     0.00000000e+00    
           7.77953464e-05     2.10426442e-05     0.00000000e+00    
           8.13316001e-05     2.35491716e-05     0.00000000e+00    
           8.43416274e-05     2.68693584e-05     0.00000000e+00    
           8.66858172e-05     3.07573973e-05     0.00000000e+00    
           8.76493577e-05     3.44930995e-05     0.00000000e+00    
           8.73544996e-05     3.76663593e-05     0.00000000e+00    
           8.58028070e-05     4.03817648e-05     0.00000000e+00    
           8.31842117e-05     4.25688449e-05     0.00000000e+00    
           7.54838766e-05     4.47761158e-05     0.00000000e+00    
           7.08629523e-05     4.43538520e-05     0.00000000e+00    
           6.61663289e-05     4.33171917e-05     0.00000000e+00    
           6.18512349e-05     4.18583913e-05     0.00000000e+00    
           1.49054365e-04     5.80152919e-05     0.00000000e+00    
           1.51809654e-04     5.91118114e-05     0.00000000e+00    
           1.54409106e-04     6.04937704e-05     0.00000000e+00    
           1.56901646e-04     6.25177490e-05     0.00000000e+00    
           1.58724026e-04     6.49855283e-05     0.00000000e+00    
           1.59563846e-04     6.78003853e-05     0.00000000e+00    
           1.59402494e-04     7.08393709e-05     0.00000000e+00    
           1.58200899e-04     7.34706409e-05     0.00000000e+00    
           1.56187976e-04     7.53555505e-05     0.00000000e+00    
           1.53590270e-04     7.65678124e-05     0.00000000e+00    
           1.50329390e-04     7.71173945e-05     0.00000000e+00    
           1.42371049e-04     7.63364951e-05     0.00000000e+00    
           1.38499556e-04     7.45752113e-05     0.00000000e+00    
           1.35062364e-04     7.19795571e-05     0.00000000e+00    
           1.32365822e-04     6.86435451e-05     0.00000000e+00    
           1.30636487e-04     6.50294096e-05     0.00000000e+00    
           1.30023516e-04     6.18199701e-05     0.00000000e+00    
           1.30673492e-04     5.93008699e-05     0.00000000e+00    
           1.32546615e-04     5.74376354e-05     0.00000000e+00    
           1.35302660e-04     5.61362613e-05     0.00000000e+00    