<?xml version="1.0"?>
<VTKFile type="UnstructuredGrid" version="0.1">
  <UnstructuredGrid>
    <Piece NumberOfPoints="1034" NumberOfCells="1614">
      <Points>
        <DataArray type="Float32" NumberOfComponents="3">
           5.21582007e-01     5.11657000e-01     0.00000000e+00    
           5.07319987e-01     5.11657000e-01     0.00000000e+00    
           4.65243995e-01     5.17907977e-01     0.00000000e+00    
           4.65243995e-01     5.04921973e-01     0.00000000e+00    
           4.75246996e-01     5.11415005e-01     0.00000000e+00    
           5.33852994e-01     5.04921973e-01     0.00000000e+00    
           5.33852994e-01     5.17907977e-01     0.00000000e+00    
           4.83779997e-01     5.34618974e-01     0.00000000e+00    
           4.68984991e-01     5.34618974e-01     0.00000000e+00    
           4.76381987e-01     5.23841977e-01     0.00000000e+00    
           4.68984991e-01     4.66010004e-01     0.00000000e+00    
           4.83779997e-01     4.66010004e-01     0.00000000e+00    
           4.99920011e-01     5.34618974e-01     0.00000000e+00    
           4.89203990e-01     5.34618974e-01     0.00000000e+00    
           4.94562000e-01     5.22280991e-01     0.00000000e+00    
           4.89203990e-01     4.66010004e-01     0.00000000e+00    
           4.99920011e-01     4.66010004e-01     0.00000000e+00    
           5.32517016e-01     4.74112004e-01     0.00000000e+00    
           5.17961025e-01     4.74112004e-01     0.00000000e+00    
           5.33852994e-01     5.19801974e-01     0.00000000e+00    
           5.33852994e-01     5.29603004e-01     0.00000000e+00    
           5.19536972e-01     5.24702013e-01     0.00000000e+00    
           4.65243995e-01     5.29603004e-01     0.00000000e+00    
           4.65243995e-01     5.19801974e-01     0.00000000e+00    
           4.92487997e-01     5.17117977e-01     0.00000000e+00    
           4.76904988e-01     5.17117977e-01     0.00000000e+00    
           5.17996013e-01     5.27033985e-01     0.00000000e+00    
           5.04473984e-01     5.27033985e-01     0.00000000e+00    
           5.08446991e-01     4.83435005e-01     0.00000000e+00    
           4.94414002e-01     4.83435005e-01     0.00000000e+00    
           4.65243995e-01     4.83101994e-01     0.00000000e+00    
           4.65243995e-01     4.74415004e-01     0.00000000e+00    
           4.78336990e-01     4.78758007e-01     0.00000000e+00    
           5.33852994e-01     4.74415004e-01     0.00000000e+00    
           5.33852994e-01     4.83101994e-01     0.00000000e+00    
           4.80668008e-01     4.95810986e-01     0.00000000e+00    
           4.66084987e-01     4.95810986e-01     0.00000000e+00    
           4.93930012e-01     4.79214013e-01     0.00000000e+00    
           4.78967011e-01     4.79214013e-01     0.00000000e+00    
           5.09284973e-01     4.97658014e-01     0.00000000e+00    
           4.95503992e-01     4.97658014e-01     0.00000000e+00    
           5.33011973e-01     5.01751006e-01     0.00000000e+00    
           5.17829001e-01     5.01751006e-01     0.00000000e+00    
           4.95451003e-01     5.00564992e-01     0.00000000e+00    
           4.80922014e-01     5.00564992e-01     0.00000000e+00    
           5.25367022e-01     4.88312006e-01     0.00000000e+00    
           5.09521008e-01     4.88312006e-01     0.00000000e+00    
           4.65243995e-01     5.34618974e-01     0.00000000e+00    
           4.65243995e-01     4.66010004e-01     0.00000000e+00    
           5.33852994e-01     4.66010004e-01     0.00000000e+00    
           5.33852994e-01     5.34618974e-01     0.00000000e+00    
           5.21338999e-01     5.13502657e-01     0.00000000e+00    
           5.20626605e-01     5.15222490e-01     0.00000000e+00    
           5.19493401e-01     5.16699374e-01     0.00000000e+00    
           5.18016517e-01     5.17832637e-01     0.00000000e+00    
           5.16296625e-01     5.18545032e-01     0.00000000e+00    
           5.14451027e-01     5.18787980e-01     0.00000000e+00    
           5.12605369e-01     5.18545032e-01     0.00000000e+00    
           5.10885477e-01     5.17832637e-01     0.00000000e+00    
           5.09408593e-01     5.16699374e-01     0.00000000e+00    
           5.08275390e-01     5.15222490e-01     0.00000000e+00    
           5.07562995e-01     5.13502657e-01     0.00000000e+00    
           5.07562995e-01     5.09811342e-01     0.00000000e+00    
           5.08275390e-01     5.08091509e-01     0.00000000e+00    
           5.09408593e-01     5.06614625e-01     0.00000000e+00    
           5.10885477e-01     5.05481362e-01     0.00000000e+00    
           5.12605369e-01     5.04768968e-01     0.00000000e+00    
           5.14451027e-01     5.04526019e-01     0.00000000e+00    
           5.16296625e-01     5.04768968e-01     0.00000000e+00    
           5.18016517e-01     5.05481362e-01     0.00000000e+00    
           5.19493401e-01     5.06614625e-01     0.00000000e+00    
           5.20626605e-01     5.08091509e-01     0.00000000e+00    
           5.21338999e-01     5.09811342e-01     0.00000000e+00    
           4.66931671e-01     5.04409373e-01     0.00000000e+00    
           4.68693614e-01     5.04328012e-01     0.00000000e+00    
           4.70421344e-01     5.04682958e-01     0.00000000e+00    
           4.72008497e-01     5.05452335e-01     0.00000000e+00    
           4.73357379e-01     5.06588817e-01     0.00000000e+00    
           4.74384934e-01     5.08022368e-01     0.00000000e+00    
           4.75027919e-01     5.09664834e-01     0.00000000e+00    
           4.75028187e-01     5.13165236e-01     0.00000000e+00    
           4.74385172e-01     5.14807761e-01     0.00000000e+00    
           4.73357558e-01     5.16241372e-01     0.00000000e+00    
           4.72008646e-01     5.17377913e-01     0.00000000e+00    
           4.70421433e-01     5.18147290e-01     0.00000000e+00    
           4.68693614e-01     5.18502235e-01     0.00000000e+00    
           4.66931641e-01     5.18420875e-01     0.00000000e+00    
           5.32303810e-01     5.16964078e-01     0.00000000e+00    
           5.31043947e-01     5.15658796e-01     0.00000000e+00    
           5.30155540e-01     5.14077127e-01     0.00000000e+00    
           5.29696345e-01     5.12322068e-01     0.00000000e+00    
           5.29696345e-01     5.10507941e-01     0.00000000e+00    
           5.30155540e-01     5.08752882e-01     0.00000000e+00    
           5.31043947e-01     5.07171214e-01     0.00000000e+00    
           5.32303810e-01     5.05865932e-01     0.00000000e+00    
           4.68517244e-01     5.32760799e-01     0.00000000e+00    
           4.68509018e-01     5.30844629e-01     0.00000000e+00    
           4.68960851e-01     5.28982460e-01     0.00000000e+00    
           4.69846308e-01     5.27283132e-01     0.00000000e+00    
           4.71113682e-01     5.25845945e-01     0.00000000e+00    
           4.72688884e-01     5.24754822e-01     0.00000000e+00    
           4.74479854e-01     5.24073541e-01     0.00000000e+00    
           4.78284091e-01     5.24073601e-01     0.00000000e+00    
           4.80075032e-01     5.24754822e-01     0.00000000e+00    
           4.81650203e-01     5.25845885e-01     0.00000000e+00    
           4.82917547e-01     5.27283013e-01     0.00000000e+00    
           4.83803004e-01     5.28982282e-01     0.00000000e+00    
           4.84254897e-01     5.30844331e-01     0.00000000e+00    
           4.84246761e-01     5.32760441e-01     0.00000000e+00    
           4.82887864e-01     4.67691004e-01     0.00000000e+00    
           4.81620818e-01     4.69110936e-01     0.00000000e+00    
           4.80051905e-01     4.70188022e-01     0.00000000e+00    
           4.78271484e-01     4.70860153e-01     0.00000000e+00    
           4.76382166e-01     4.71088618e-01     0.00000000e+00    
           4.74492878e-01     4.70860243e-01     0.00000000e+00    
           4.72712427e-01     4.70188200e-01     0.00000000e+00    
           4.71143454e-01     4.69111174e-01     0.00000000e+00    
           4.69876349e-01     4.67691302e-01     0.00000000e+00    
           4.88103986e-01     5.33086061e-01     0.00000000e+00    
           4.87431526e-01     5.31323195e-01     0.00000000e+00    
           4.87231195e-01     5.29447019e-01     0.00000000e+00    
           4.87516224e-01     5.27581930e-01     0.00000000e+00    
           4.88267750e-01     5.25851250e-01     0.00000000e+00    
           4.89436030e-01     5.24369657e-01     0.00000000e+00    
           4.90943670e-01     5.23235261e-01     0.00000000e+00    
           4.92690891e-01     5.22523046e-01     0.00000000e+00    
           4.96432930e-01     5.22523701e-01     0.00000000e+00    
           4.98180002e-01     5.23235798e-01     0.00000000e+00    
           4.99687493e-01     5.24370134e-01     0.00000000e+00    
           5.00855684e-01     5.25851607e-01     0.00000000e+00    
           5.01607120e-01     5.27582109e-01     0.00000000e+00    
           5.01892149e-01     5.29447079e-01     0.00000000e+00    
           5.01691818e-01     5.31323016e-01     0.00000000e+00    
           5.01019418e-01     5.33085763e-01     0.00000000e+00    
           4.98371124e-01     4.67269689e-01     0.00000000e+00    
           4.96539861e-01     4.68064904e-01     0.00000000e+00    
           4.94562000e-01     4.68336672e-01     0.00000000e+00    
           4.92584139e-01     4.68064904e-01     0.00000000e+00    
           4.90752876e-01     4.67269689e-01     0.00000000e+00    
           5.32269001e-01     4.75995690e-01     0.00000000e+00    
           5.31541944e-01     4.77750987e-01     0.00000000e+00    
           5.30385315e-01     4.79258329e-01     0.00000000e+00    
           5.28877974e-01     4.80414927e-01     0.00000000e+00    
[...]
      <PointData>
        <DataArray type="Float32" Name="Displacement" NumberOfComponents="3">
           1.67800041e-04     8.05999080e-05     0.00000000e+00    
           1.67471109e-04     1.11587426e-04     0.00000000e+00    
           1.80081275e-04     8.40776411e-05     0.00000000e+00    
           1.51437125e-04     7.86035744e-05     0.00000000e+00    
           1.66173748e-04     6.82808968e-05     0.00000000e+00    
           1.51437125e-04     7.86035744e-05     0.00000000e+00    
           1.80081275e-04     8.40776411e-05     0.00000000e+00    
           2.49796256e-04     1.06632193e-04     0.00000000e+00    
           2.49911071e-04     1.43138226e-04     0.00000000e+00    
           2.17470195e-04     1.21967329e-04     0.00000000e+00    
          -8.89250273e-08     1.81382329e-05     0.00000000e+00    
          -2.03730295e-07    -1.83678076e-05     0.00000000e+00    
           2.35507439e-04     1.02010490e-04     0.00000000e+00    
           2.36392239e-04     1.13826529e-04     0.00000000e+00    
           2.15416978e-04     1.03166429e-04     0.00000000e+00    
          -1.36077633e-05    -1.11734744e-05     0.00000000e+00    
          -1.44925652e-05    -2.29895068e-05     0.00000000e+00    
           4.59217008e-05     1.39252606e-05     0.00000000e+00    
           4.47562561e-05     4.75704510e-05     0.00000000e+00    
           2.02697993e-04     9.74949508e-05     0.00000000e+00    
           2.29290061e-04     1.02015416e-04     0.00000000e+00    
           2.17068286e-04     1.29712338e-04     0.00000000e+00    
           2.29290061e-04     1.02015416e-04     0.00000000e+00    
           2.02697993e-04     9.74949508e-05     0.00000000e+00    
           1.89126629e-04     7.89420810e-05     0.00000000e+00    
           1.87119804e-04     1.10973764e-04     0.00000000e+00    
           2.23988740e-04     1.14816583e-04     0.00000000e+00    
           2.24979056e-04     1.27689957e-04     0.00000000e+00    
           8.19345296e-05     4.25738981e-05     0.00000000e+00    
           7.84641888e-05     4.88142250e-05     0.00000000e+00    
           6.64196195e-05     3.66920031e-05     0.00000000e+00    
           4.86338686e-05     3.37017555e-05     0.00000000e+00    
           5.88008115e-05     1.56672595e-05     0.00000000e+00    
           4.86338686e-05     3.37017555e-05     0.00000000e+00    
           6.64196195e-05     3.66920031e-05     0.00000000e+00    
           1.21494922e-04     4.72863867e-05     0.00000000e+00    
           1.21951598e-04     6.43586754e-05     0.00000000e+00    
           6.59646175e-05     1.88544254e-05     0.00000000e+00    
           6.23637243e-05     2.62891499e-05     0.00000000e+00    
           1.19304466e-04     5.34129431e-05     0.00000000e+00    
           1.20742603e-04     6.55208132e-05     0.00000000e+00    
           1.39237847e-04     6.18184495e-05     0.00000000e+00    
           1.38984789e-04     8.40719367e-05     0.00000000e+00    
           1.24530925e-04     5.95591082e-05     0.00000000e+00    
           1.25626786e-04     7.03971236e-05     0.00000000e+00    
           1.00125857e-04     5.01277354e-05     0.00000000e+00    
           9.93013164e-05     7.48053571e-05     0.00000000e+00    
           2.50000012e-04     1.25000006e-04     0.00000000e+00    
           0.00000000e+00     0.00000000e+00     0.00000000e+00    
           0.00000000e+00     0.00000000e+00     0.00000000e+00    
           2.50000012e-04     1.25000006e-04     0.00000000e+00    
           1.73259657e-04     8.20798814e-05     0.00000000e+00    
           1.78291768e-04     8.45065370e-05     0.00000000e+00    
           1.82456031e-04     8.75545229e-05     0.00000000e+00    
           1.85453609e-04     9.09362061e-05     0.00000000e+00    
           1.87196376e-04     9.48989618e-05     0.00000000e+00    
           1.87777609e-04     9.91324341e-05     0.00000000e+00    
           1.87085607e-04     1.03232560e-04     0.00000000e+00    
           1.84973163e-04     1.06706531e-04     0.00000000e+00    
           1.81576805e-04     1.09381850e-04     0.00000000e+00    
           1.77358306e-04     1.11044668e-04     0.00000000e+00    
           1.72577100e-04     1.11834888e-04     0.00000000e+00    
           1.62355878e-04     1.10188885e-04     0.00000000e+00    
           1.57592003e-04     1.07987107e-04     0.00000000e+00    
           1.53568646e-04     1.05099927e-04     0.00000000e+00    
           1.50571534e-04     1.01891186e-04     0.00000000e+00    
           1.48865161e-04     9.83535065e-05     0.00000000e+00    
           1.48416977e-04     9.46796281e-05     0.00000000e+00    
           1.48944076e-04     9.09850714e-05     0.00000000e+00    
           1.50332955e-04     8.73825484e-05     0.00000000e+00    
           1.52698980e-04     8.39983186e-05     0.00000000e+00    
           1.56673370e-04     8.16525790e-05     0.00000000e+00    
           1.62042474e-04     8.04481388e-05     0.00000000e+00    
           1.51093278e-04     7.71481355e-05     0.00000000e+00    
           1.51079221e-04     7.50384788e-05     0.00000000e+00    
           1.51757762e-04     7.25938153e-05     0.00000000e+00    
           1.53410583e-04     7.04878403e-05     0.00000000e+00    
           1.55847214e-04     6.89877343e-05     0.00000000e+00    
           1.58929892e-04     6.80616795e-05     0.00000000e+00    
           1.62414843e-04     6.79063814e-05     0.00000000e+00    
           1.69751744e-04     6.91517635e-05     0.00000000e+00    
           1.72869157e-04     7.03172918e-05     0.00000000e+00    
           1.75563750e-04     7.19100863e-05     0.00000000e+00    
           1.77715920e-04     7.39243478e-05     0.00000000e+00    
           1.79391980e-04     7.62544078e-05     0.00000000e+00    
           1.80449759e-04     7.86626188e-05     0.00000000e+00    
           1.80628500e-04     8.12861399e-05     0.00000000e+00    
           1.78062168e-04     8.68423303e-05     0.00000000e+00    
           1.74658329e-04     8.86474663e-05     0.00000000e+00    
           1.70543834e-04     8.92757016e-05     0.00000000e+00    
           1.66160622e-04     8.89378498e-05     0.00000000e+00    
           1.61697317e-04     8.74404286e-05     0.00000000e+00    
           1.57320304e-04     8.49266798e-05     0.00000000e+00    
           1.53424087e-04     8.15422027e-05     0.00000000e+00    
           1.51957953e-04     7.95186934e-05     0.00000000e+00    
           2.43775808e-04     1.43244644e-04     0.00000000e+00    
           2.37782733e-04     1.42295437e-04     0.00000000e+00    
           2.32255232e-04     1.40490913e-04     0.00000000e+00    
           2.27462806e-04     1.37913521e-04     0.00000000e+00    
           2.23511161e-04     1.34536735e-04     0.00000000e+00    
           2.20385438e-04     1.30586064e-04     0.00000000e+00    
           2.18266039e-04     1.26324623e-04     0.00000000e+00    
           2.17909095e-04     1.17536343e-04     0.00000000e+00    
           2.19698981e-04     1.13233771e-04     0.00000000e+00    
           2.22874878e-04     1.09411485e-04     0.00000000e+00    
           2.27239652e-04     1.06400505e-04     0.00000000e+00    
           2.32211882e-04     1.04601713e-04     0.00000000e+00    
           2.37649394e-04     1.04069331e-04     0.00000000e+00    
           2.43611517e-04     1.04697050e-04     0.00000000e+00    
           5.65133951e-06    -1.53291985e-05     0.00000000e+00    
           1.06086236e-05    -1.14338945e-05     0.00000000e+00    
           1.42519757e-05    -7.16012028e-06     0.00000000e+00    
           1.64185585e-05    -2.83079908e-06     0.00000000e+00    
           1.70637195e-05     1.93062942e-06     0.00000000e+00    
           1.65110177e-05     6.58142653e-06     0.00000000e+00    
           1.42151175e-05     1.09399043e-05     0.00000000e+00    
           1.03674374e-05     1.43958796e-05     0.00000000e+00    
           5.44043451e-06     1.68057959e-05     0.00000000e+00    
           2.33890649e-04     1.14508737e-04     0.00000000e+00    
           2.31002399e-04     1.14521463e-04     0.00000000e+00    
           2.27659606e-04     1.13903479e-04     0.00000000e+00    
           2.23895622e-04     1.12491362e-04     0.00000000e+00    
           2.20047907e-04     1.10203451e-04     0.00000000e+00    
           2.16931905e-04     1.07372958e-04     0.00000000e+00    
           2.15347754e-04     1.05215280e-04     0.00000000e+00    
           2.15026186e-04     1.04102815e-04     0.00000000e+00    
           2.16199187e-04     1.02050173e-04     0.00000000e+00    
           2.17473120e-04     1.00958445e-04     0.00000000e+00    
           2.19275418e-04     1.00093261e-04     0.00000000e+00    
           2.21408045e-04     9.94752772e-05     0.00000000e+00    
           2.23773925e-04     9.92291098e-05     0.00000000e+00    
           2.26499891e-04     9.92588975e-05     0.00000000e+00    
           2.29489611e-04     9.96664967e-05     0.00000000e+00    
           2.32620296e-04     1.00538244e-04     0.00000000e+00    
          -1.20705145e-05    -2.10263024e-05     0.00000000e+00    
          -1.03889688e-05    -1.88431113e-05     0.00000000e+00    
          -9.62447484e-06    -1.66754653e-05     0.00000000e+00    
          -9.99435179e-06    -1.44761061e-05     0.00000000e+00    
          -1.14144959e-05    -1.25676779e-05     0.00000000e+00    
           5.10977698e-05     1.52878238e-05     0.00000000e+00    
           5.53216742e-05     1.70496805e-05     0.00000000e+00    
           5.89543270e-05     1.91737381e-05     0.00000000e+00    
           6.22432781e-05     2.23823845e-05     0.00000000e+00    
           6.47196794e-05     2.65223880e-05     0.00000000e+00    
           6.59664074e-05     3.12362099e-05     0.00000000e+00    
           6.61108352e-05     3.65152737e-05     0.00000000e+00    
           6.43179010e-05     4.11226138e-05     0.00000000e+00    
           6.07437760e-05     4.46916529e-05     0.00000000e+00    
           5.59279506e-05     4.69361585e-05     0.00000000e+00    
           5.04354248e-05     4.79385708e-05     0.00000000e+00    
           3.90678470e-05     4.61517448e-05     0.00000000e+00    
           3.38386817e-05     4.36193914e-05     0.00000000e+00    
           2.94063666e-05     4.02085425e-05     0.00000000e+00    
           2.61192890e-05     3.60195554e-05     0.00000000e+00    
           2.41680955e-05     3.12491829e-05     0.00000000e+00    
           2.35987918e-05     2.62706690e-05     0.00000000e+00    
           2.44577368e-05     2.17004181e-05     0.00000000e+00    
           2.67697942e-05     1.79521430e-05     0.00000000e+00    
           3.03693232e-05     1.53214078e-05     0.00000000e+00    
           3.49724578e-05     1.37447641e-05     0.00000000e+00    
           4.03515987e-05     1.32016667e-05     0.00000000e+00    
           2.32621576e-04     1.05261257e-04     0.00000000e+00    
           2.35092084e-04     1.09272107e-04     0.00000000e+00    
           2.36558932e-04     1.13887894e-04     0.00000000e+00    
           2.36774576e-04     1.18597593e-04     0.00000000e+00    
           2.35615254e-04     1.22791564e-04     0.00000000e+00    
           2.33107421e-04     1.26059662e-04     0.00000000e+00    
           2.29723140e-04     1.28174579e-04     0.00000000e+00    
           2.25909069e-04     1.29462060e-04     0.00000000e+00    
           2.21796567e-04     1.29930660e-04     0.00000000e+00    
           2.11707302e-04     1.28568005e-04     0.00000000e+00    
           2.06305092e-04     1.26458515e-04     0.00000000e+00    
           2.01633011e-04     1.23512393e-04     0.00000000e+00    
           1.98104477e-04     1.20150893e-04     0.00000000e+00    
           1.95894710e-04     1.16383475e-04     0.00000000e+00    
           1.94742170e-04     1.12385205e-04     0.00000000e+00    
           1.94690700e-04     1.08166343e-04     0.00000000e+00    
           1.95671266e-04     1.03817489e-04     0.00000000e+00    
           1.98337206e-04     1.00137710e-04     0.00000000e+00    
           2.07332225e-04     9.62374907e-05     0.00000000e+00    
           2.12206345e-04     9.59708850e-05     0.00000000e+00    
           2.17062829e-04     9.65929939e-05     0.00000000e+00    
           2.21597787e-04     9.80322002e-05     0.00000000e+00    
           2.25701340e-04     9.98429023e-05     0.00000000e+00    
           1.94470966e-04     8.04603478e-05     0.00000000e+00    
           1.99666625e-04     8.32506485e-05     0.00000000e+00    
           2.04405209e-04     8.67355266e-05     0.00000000e+00    
           2.07455261e-04     9.02545144e-05     0.00000000e+00    
           2.09022459e-04     9.30316601e-05     0.00000000e+00    
           2.09449121e-04     9.56672229e-05     0.00000000e+00    
           2.09226302e-04     9.88924730e-05     0.00000000e+00    
           2.08151090e-04     1.02576261e-04     0.00000000e+00    
           2.05695746e-04     1.06053856e-04     0.00000000e+00    
           2.01926450e-04     1.08978442e-04     0.00000000e+00    
           1.97214715e-04     1.10774999e-04     0.00000000e+00    
           1.92238163e-04     1.11258487e-04     0.00000000e+00    
           1.82285090e-04     1.09785957e-04     0.00000000e+00    
           1.78139948e-04     1.08053682e-04     0.00000000e+00    
           1.74554050e-04     1.05945510e-04     0.00000000e+00    
           1.71505075e-04     1.02959719e-04     0.00000000e+00    
           1.69167077e-04     9.92793866e-05     0.00000000e+00    
           1.67697071e-04     9.50320900e-05     0.00000000e+00    
           1.67491016e-04     9.06090791e-05     0.00000000e+00    
           1.68622224e-04     8.67131675e-05     0.00000000e+00    
           1.71099862e-04     8.35165411e-05     0.00000000e+00    
           1.74665562e-04     8.10567581e-05     0.00000000e+00    
           1.78988776e-04     7.94020089e-05     0.00000000e+00    
           1.83904864e-04     7.86429810e-05     0.00000000e+00    
           2.27125696e-04     1.15590818e-04     0.00000000e+00    
           2.30225065e-04     1.16923220e-04     0.00000000e+00    
           2.32697173e-04     1.18674114e-04     0.00000000e+00    
           2.34230582e-04     1.20608114e-04     0.00000000e+00    
           2.34810723e-04     1.22578000e-04     0.00000000e+00    
           2.34475418e-04     1.24443337e-04     0.00000000e+00    
           2.33378611e-04     1.26001600e-04     0.00000000e+00    
           2.31712635e-04     1.27103835e-04     0.00000000e+00    
           2.29620025e-04     1.27730716e-04     0.00000000e+00    
           2.27425277e-04     1.27747568e-04     0.00000000e+00    
           2.22314033e-04     1.27398700e-04     0.00000000e+00    
           2.19548587e-04     1.26604369e-04     0.00000000e+00    
           2.17093373e-04     1.25206585e-04     0.00000000e+00    
           2.15165332e-04     1.23328835e-04     0.00000000e+00    
           2.13994819e-04     1.20813485e-04     0.00000000e+00    
           2.13903026e-04     1.18074393e-04     0.00000000e+00    
           2.14901942e-04     1.15849485e-04     0.00000000e+00    
           2.16752931e-04     1.14561910e-04     0.00000000e+00    
           2.18821689e-04     1.14258088e-04     0.00000000e+00    
           2.21114387e-04     1.14439783e-04     0.00000000e+00    
           8.43477173e-05     4.32159068e-05     0.00000000e+00    
           8.61290246e-05     4.35490365e-05     0.00000000e+00    
           8.76270497e-05     4.40809054e-05     0.00000000e+00    
           8.92490789e-05     4.54940746e-05     0.00000000e+00    
           9.05304405e-05     4.78733491e-05     0.00000000e+00    
           9.06435525e-05     4.97929468e-05     0.00000000e+00    
           8.96650599e-05     5.04264426e-05     0.00000000e+00    
           8.79372528e-05     5.06830875e-05     0.00000000e+00    
           8.58188941e-05     5.05655116e-05     0.00000000e+00    
           8.35175306e-05     5.02379626e-05     0.00000000e+00    
           8.09724879e-05     4.97299225e-05     0.00000000e+00    
           7.63171120e-05     4.80108247e-05     0.00000000e+00    
           7.49738974e-05     4.73974869e-05     0.00000000e+00    
           7.41619006e-05     4.69008519e-05     0.00000000e+00    
           7.32814733e-05     4.61028467e-05     0.00000000e+00    
           7.25808932e-05     4.51461383e-05     0.00000000e+00    
           7.22314217e-05     4.41671618e-05     0.00000000e+00    
           7.26150683e-05     4.31868393e-05     0.00000000e+00    
           7.36275033e-05     4.23696729e-05     0.00000000e+00    
           7.52414344e-05     4.19371099e-05     0.00000000e+00    
           7.72572894e-05     4.17699848e-05     0.00000000e+00    
           7.95888336e-05     4.20110591e-05     0.00000000e+00    
           4.62701610e-05     3.22685555e-05     0.00000000e+00    
           4.40816984e-05     3.02257649e-05     0.00000000e+00    
           4.26062907e-05     2.75316434e-05     0.00000000e+00    
           4.19762582e-05     2.42463520e-05     0.00000000e+00    
           4.25958387e-05     2.09428108e-05     0.00000000e+00    
           4.49171821e-05     1.79584858e-05     0.00000000e+00    
           4.82004907e-05     1.60728614e-05     0.00000000e+00    
           5.18355118e-05     1.53252950e-05     0.00000000e+00    
           5.54202961e-05     1.52482398e-05     0.00000000e+00    
           6.18602571e-05     1.63688110e-05     0.00000000e+00    
           6.48262649e-05     1.75530367e-05     0.00000000e+00    
           6.77850185e-05     1.96487272e-05     0.00000000e+00    
           7.03113255e-05     2.24369796e-05     0.00000000e+00    
           7.22842960e-05     2.57034699e-05     0.00000000e+00    
           7.30884276e-05     2.88276769e-05     0.00000000e+00    
           7.28294763e-05     3.14562458e-05     0.00000000e+00    
           7.15176648e-05     3.36889570e-05     0.00000000e+00    
           6.93233160e-05     3.54758267e-05     0.00000000e+00    
           6.28932539e-05     3.72644026e-05     0.00000000e+00    
           5.90274467e-05     3.68768087e-05     0.00000000e+00    
           5.51091362e-05     3.59608312e-05     0.00000000e+00    
           5.15257889e-05     3.47157911e-05     0.00000000e+00    
           1.24113940e-04     4.84015000e-05     0.00000000e+00    
           1.26401632e-04     4.93011103e-05     0.00000000e+00    
           1.28573636e-04     5.04349591e-05     0.00000000e+00    
           1.30667482e-04     5.21192997e-05     0.00000000e+00    
           1.32199202e-04     5.41728587e-05     0.00000000e+00    
           1.32909772e-04     5.65166665e-05     0.00000000e+00    
           1.32784451e-04     5.90520103e-05     0.00000000e+00    
           1.31784487e-04     6.12480944e-05     0.00000000e+00    
           1.30097935e-04     6.28283306e-05     0.00000000e+00    
           1.27917665e-04     6.38555794e-05     0.00000000e+00    
           1.25185194e-04     6.43277017e-05     0.00000000e+00    
           1.18518357e-04     6.36778859e-05     0.00000000e+00    
           1.15268958e-04     6.21969957e-05     0.00000000e+00    
           1.12374015e-04     6.00081148e-05     0.00000000e+00    
           1.10094828e-04     5.71812161e-05     0.00000000e+00    
           1.08632186e-04     5.41250083e-05     0.00000000e+00    
           1.08119166e-04     5.14240310e-05     0.00000000e+00    
           1.08685759e-04     4.93257976e-05     0.00000000e+00    
           1.10274108e-04     4.78009424e-05     0.00000000e+00    
           1.12589951e-04     4.67386853e-05     0.00000000e+00    