<?xml version="1.0"?>
<VTKFile type="UnstructuredGrid" version="0.1">
  <UnstructuredGrid>
    <Piece NumberOfPoints="1034" NumberOfCells="1614">
      <Points>
        <DataArray type="Float32" NumberOfComponents="3">
           5.21582007e-01     5.11657000e-01     0.00000000e+00    
           5.07319987e-01     5.11657000e-01     0.00000000e+00    
           4.65243995e-01     5.17907977e-01     0.00000000e+00    
           4.65243995e-01     5.04921973e-01     0.00000000e+00    
           4.75246996e-01     5.11415005e-01     0.00000000e+00    
           5.33852994e-01     5.04921973e-01     0.00000000e+00    
           5.33852994e-01     5.17907977e-01     0.00000000e+00    
           4.83779997e-01     5.34618974e-01     0.00000000e+00    
           4.68984991e-01     5.34618974e-01     0.00000000e+00    
           4.76381987e-01     5.23841977e-01     0.00000000e+00    
           4.68984991e-01     4.66010004e-01     0.00000000e+00    
           4.83779997e-01     4.66010004e-01     0.00000000e+00    
           4.99920011e-01     5.34618974e-01     0.00000000e+00    
           4.89203990e-01     5.34618974e-01     0.00000000e+00    
           4.94562000e-01     5.22280991e-01     0.00000000e+00    
           4.89203990e-01     4.66010004e-01     0.00000000e+00    
           4.99920011e-01     4.66010004e-01     0.00000000e+00    
           5.32517016e-01     4.74112004e-01     0.00000000e+00    
           5.17961025e-01     4.74112004e-01     0.00000000e+00    
           5.33852994e-01     5.19801974e-01     0.00000000e+00    
           5.33852994e-01     5.29603004e-01     0.00000000e+00    
           5.19536972e-01     5.24702013e-01     0.00000000e+00    
           4.65243995e-01     5.29603004e-01     0.00000000e+00    
           4.65243995e-01     5.19801974e-01     0.00000000e+00    
           4.92487997e-01     5.17117977e-01     0.00000000e+00    
           4.76904988e-01     5.17117977e-01     0.00000000e+00    
           5.17996013e-01     5.27033985e-01     0.00000000e+00    
           5.04473984e-01     5.27033985e-01     0.00000000e+00    
           5.08446991e-01     4.83435005e-01     0.00000000e+00    
           4.94414002e-01     4.83435005e-01     0.00000000e+00    
           4.65243995e-01     4.83101994e-01     0.00000000e+00    
           4.65243995e-01     4.74415004e-01     0.00000000e+00    
           4.78336990e-01     4.78758007e-01     0.00000000e+00    
           5.33852994e-01     4.74415004e-01     0.00000000e+00    
           5.33852994e-01     4.83101994e-01     0.00000000e+00    
           4.80668008e-01     4.95810986e-01     0.00000000e+00    
           4.66084987e-01     4.95810986e-01     0.00000000e+00    
           4.93930012e-01     4.79214013e-01     0.00000000e+00    
           4.78967011e-01     4.79214013e-01     0.00000000e+00    
           5.09284973e-01     4.97658014e-01     0.00000000e+00    
           4.95503992e-01     4.97658014e-01     0.00000000e+00    
           5.33011973e-01     5.01751006e-01     0.00000000e+00    
           5.17829001e-01     5.01751006e-01     0.00000000e+00    
           4.95451003e-01     5.00564992e-01     0.00000000e+00    
           4.80922014e-01     5.00564992e-01     0.00000000e+00    
           5.25367022e-01     4.88312006e-01     0.00000000e+00    
           5.09521008e-01     4.88312006e-01     0.00000000e+00    
           4.65243995e-01     5.34618974e-01     0.00000000e+00    
           4.65243995e-01     4.66010004e-01     0.00000000e+00    
           5.33852994e-01     4.66010004e-01     0.00000000e+00    
           5.33852994e-01     5.34618974e-01     0.00000000e+00    
           5.21338999e-01     5.13502657e-01     0.00000000e+00    
           5.20626605e-01     5.15222490e-01     0.00000000e+00    
           5.19493401e-01     5.16699374e-01     0.00000000e+00    
           5.18016517e-01     5.17832637e-01     0.00000000e+00    
           5.16296625e-01     5.18545032e-01     0.00000000e+00    
           5.14451027e-01     5.18787980e-01     0.00000000e+00    
           5.12605369e-01     5.18545032e-01     0.00000000e+00    
           5.10885477e-01     5.17832637e-01     0.00000000e+00    
           5.09408593e-01     5.16699374e-01     0.00000000e+00    
           5.08275390e-01     5.15222490e-01     0.00000000e+00    
           5.07562995e-01     5.13502657e-01     0.00000000e+00    
           5.07562995e-01     5.09811342e-01     0.00000000e+00    
           5.08275390e-01     5.08091509e-01     0.00000000e+00    
           5.09408593e-01     5.06614625e-01     0.00000000e+00    
           5.10885477e-01     5.05481362e-01     0.00000000e+00    
           5.12605369e-01     5.04768968e-01     0.00000000e+00    
           5.14451027e-01     5.04526019e-01     0.00000000e+00    
           5.16296625e-01     5.04768968e-01     0.00000000e+00    
           5.18016517e-01     5.05481362e-01     0.00000000e+00    
           5.19493401e-01     5.06614625e-01     0.00000000e+00    
           5.20626605e-01     5.08091509e-01     0.00000000e+00    
           5.21338999e-01     5.09811342e-01     0.00000000e+00    
           4.66931671e-01     5.04409373e-01     0.00000000e+00    
           4.68693614e-01     5.04328012e-01     0.00000000e+00    
           4.70421344e-01     5.04682958e-01     0.00000000e+00    
           4.72008497e-01     5.05452335e-01     0.00000000e+00    
           4.73357379e-01     5.06588817e-01     0.00000000e+00    
           4.74384934e-01     5.08022368e-01     0.00000000e+00    
           4.75027919e-01     5.09664834e-01     0.00000000e+00    
           4.75028187e-01     5.13165236e-01     0.00000000e+00    
           4.74385172e-01     5.14807761e-01     0.00000000e+00    
           4.73357558e-01     5.16241372e-01     0.00000000e+00    
           4.72008646e-01     5.17377913e-01     0.00000000e+00    
           4.70421433e-01     5.18147290e-01     0.00000000e+00    
           4.68693614e-01     5.18502235e-01     0.00000000e+00    
           4.66931641e-01     5.18420875e-01     0.00000000e+00    
           5.32303810e-01     5.16964078e-01     0.00000000e+00    
           5.31043947e-01     5.15658796e-01     0.00000000e+00    
           5.30155540e-01     5.14077127e-01     0.00000000e+00    
           5.29696345e-01     5.12322068e-01     0.00000000e+00    
           5.29696345e-01     5.10507941e-01     0.00000000e+00    
           5.30155540e-01     5.08752882e-01     0.00000000e+00    
           5.31043947e-01     5.07171214e-01     0.00000000e+00    
           5.32303810e-01     5.05865932e-01     0.00000000e+00    
           4.68517244e-01     5.32760799e-01     0.00000000e+00    
           4.68509018e-01     5.30844629e-01     0.00000000e+00    
           4.68960851e-01     5.28982460e-01     0.00000000e+00    
           4.69846308e-01     5.27283132e-01     0.00000000e+00    
           4.71113682e-01     5.25845945e-01     0.00000000e+00    
           4.72688884e-01     5.24754822e-01     0.00000000e+00    
           4.74479854e-01     5.24073541e-01     0.00000000e+00    
           4.78284091e-01     5.24073601e-01     0.00000000e+00    
           4.80075032e-01     5.24754822e-01     0.00000000e+00    
           4.81650203e-01     5.25845885e-01     0.00000000e+00    
           4.82917547e-01     5.27283013e-01     0.00000000e+00    
           4.83803004e-01     5.28982282e-01     0.00000000e+00    
           4.84254897e-01     5.30844331e-01     0.00000000e+00    
           4.84246761e-01     5.32760441e-01     0.00000000e+00    
           4.82887864e-01     4.67691004e-01     0.00000000e+00    
           4.81620818e-01     4.69110936e-01     0.00000000e+00    
           4.80051905e-01     4.70188022e-01     0.00000000e+00    
           4.78271484e-01     4.70860153e-01     0.00000000e+00    
           4.76382166e-01     4.71088618e-01     0.00000000e+00    
           4.74492878e-01     4.70860243e-01     0.00000000e+00    
           4.72712427e-01     4.70188200e-01     0.00000000e+00    
           4.71143454e-01     4.69111174e-01     0.00000000e+00    
           4.69876349e-01     4.67691302e-01     0.00000000e+00    
           4.88103986e-01     5.33086061e-01     0.00000000e+00    
           4.87431526e-01     5.31323195e-01     0.00000000e+00    
           4.87231195e-01     5.29447019e-01     0.00000000e+00    
           4.87516224e-01     5.27581930e-01     0.00000000e+00    
           4.88267750e-01     5.25851250e-01     0.00000000e+00    
           4.89436030e-01     5.24369657e-01     0.00000000e+00    
           4.90943670e-01     5.23235261e-01     0.00000000e+00    
           4.92690891e-01     5.22523046e-01     0.00000000e+00    
           4.96432930e-01     5.22523701e-01     0.00000000e+00    
           4.98180002e-01     5.23235798e-01     0.00000000e+00    
           4.99687493e-01     5.24370134e-01     0.00000000e+00    
           5.00855684e-01     5.25851607e-01     0.00000000e+00    
           5.01607120e-01     5.27582109e-01     0.00000000e+00    
           5.01892149e-01     5.29447079e-01     0.00000000e+00    
           5.01691818e-01     5.31323016e-01     0.00000000e+00    
           5.01019418e-01     5.33085763e-01     0.00000000e+00    
           4.98371124e-01     4.67269689e-01     0.00000000e+00    
           4.96539861e-01     4.68064904e-01     0.00000000e+00    
           4.94562000e-01     4.68336672e-01     0.00000000e+00    
           4.92584139e-01     4.68064904e-01     0.00000000e+00    
           4.90752876e-01     4.67269689e-01     0.00000000e+00    
           5.32269001e-01     4.75995690e-01     0.00000000e+00    
           5.31541944e-01     4.77750987e-01     0.00000000e+00    
           5.30385315e-01     4.79258329e-01     0.00000000e+00    
           5.28877974e-01     4.80414927e-01     0.00000000e+00    
[...]
      <PointData>
        <DataArray type="Float32" Name="Displacement" NumberOfComponents="3">
           1.42684986e-03     7.89763522e-04     0.00000000e+00    
           1.42485846e-03     1.02612854e-03     0.00000000e+00    
           1.57731713e-03     8.20369052e-04     0.00000000e+00    
           1.32716435e-03     8.07168370e-04     0.00000000e+00    
           1.45318243e-03     6.44954736e-04     0.00000000e+00    
           1.32716435e-03     8.07168370e-04     0.00000000e+00    
           1.57731713e-03     8.20369052e-04     0.00000000e+00    
           1.97781972e-03     9.82095837e-04     0.00000000e+00    
           1.97886699e-03     1.25440501e-03     0.00000000e+00    
           1.76254963e-03     1.10671308e-03     0.00000000e+00    
          -2.11329534e-05     2.54404993e-04     0.00000000e+00    
          -2.21803148e-05    -1.79042163e-05     0.00000000e+00    
           1.90720742e-03     1.02590933e-03     0.00000000e+00    
           1.90664164e-03     1.10611541e-03     0.00000000e+00    
           1.79394241e-03     1.05093454e-03     0.00000000e+00    
          -9.33583433e-05     1.06115396e-04     0.00000000e+00    
          -9.27925648e-05     2.59092831e-05     0.00000000e+00    
           5.01353876e-04     1.09641122e-04     0.00000000e+00    
           4.96540510e-04     4.68838320e-04     0.00000000e+00    
           1.68260001e-03     8.67851370e-04     0.00000000e+00    
           1.86047913e-03     8.79679515e-04     0.00000000e+00    
           1.77506974e-03     1.10610947e-03     0.00000000e+00    
           1.86047913e-03     8.79679515e-04     0.00000000e+00    
           1.68260001e-03     8.67851370e-04     0.00000000e+00    
           1.58118317e-03     7.81305600e-04     0.00000000e+00    
           1.57598371e-03     1.04466476e-03     0.00000000e+00    
           1.82287057e-03     1.02285692e-03     0.00000000e+00    
           1.82777620e-03     1.14208239e-03     0.00000000e+00    
           7.77654699e-04     4.60338080e-04     0.00000000e+00    
           7.70131999e-04     5.91703458e-04     0.00000000e+00    
           6.96028641e-04     5.07367949e-04     0.00000000e+00    
           5.67927375e-04     5.00169641e-04     0.00000000e+00    
           6.38026395e-04     3.34756071e-04     0.00000000e+00    
           5.67927375e-04     5.00169641e-04     0.00000000e+00    
           6.96028641e-04     5.07367949e-04     0.00000000e+00    
           1.12466025e-03     5.36437088e-04     0.00000000e+00    
           1.12517574e-03     6.72092428e-04     0.00000000e+00    
           6.73380739e-04     3.14601988e-04     0.00000000e+00    
           6.65969506e-04     4.41909942e-04     0.00000000e+00    
           1.12735759e-03     6.22661959e-04     0.00000000e+00    
           1.12996227e-03     6.97054958e-04     0.00000000e+00    
           1.23849837e-03     6.25046727e-04     0.00000000e+00    
           1.23716635e-03     8.36473017e-04     0.00000000e+00    
           1.14848348e-03     6.74787909e-04     0.00000000e+00    
           1.15170632e-03     7.50293431e-04     0.00000000e+00    
           9.17352387e-04     3.99572455e-04     0.00000000e+00    
           9.12972318e-04     6.75084244e-04     0.00000000e+00    
           2.00000009e-03     1.00000005e-03     0.00000000e+00    
           0.00000000e+00     0.00000000e+00     0.00000000e+00    
           0.00000000e+00     0.00000000e+00     0.00000000e+00    
           2.00000009e-03     1.00000005e-03     0.00000000e+00    
           1.46171928e-03     7.96347798e-04     0.00000000e+00    
           1.49399787e-03     8.10177356e-04     0.00000000e+00    
           1.52138330e-03     8.30842007e-04     0.00000000e+00    
           1.54178380e-03     8.57085513e-04     0.00000000e+00    
           1.55400636e-03     8.87335395e-04     0.00000000e+00    
           1.55764900e-03     9.18659673e-04     0.00000000e+00    
           1.55298575e-03     9.49229056e-04     0.00000000e+00    
           1.53982418e-03     9.77008836e-04     0.00000000e+00    
           1.51778490e-03     9.99979558e-04     0.00000000e+00    
           1.48988166e-03     1.01561355e-03     0.00000000e+00    
           1.45848806e-03     1.02452014e-03     0.00000000e+00    
           1.39097497e-03     1.01997796e-03     0.00000000e+00    
           1.35909289e-03     1.00657740e-03     0.00000000e+00    
           1.33209256e-03     9.85979452e-04     0.00000000e+00    
           1.31170196e-03     9.60111560e-04     0.00000000e+00    
           1.29909336e-03     9.30873095e-04     0.00000000e+00    
           1.29507587e-03     9.00884392e-04     0.00000000e+00    
           1.29893655e-03     8.72180623e-04     0.00000000e+00    
           1.30993559e-03     8.45557079e-04     0.00000000e+00    
           1.32815307e-03     8.21797294e-04     0.00000000e+00    
           1.35511393e-03     8.03198491e-04     0.00000000e+00    
           1.38993934e-03     7.92068487e-04     0.00000000e+00    
           1.31854136e-03     7.78006506e-04     0.00000000e+00    
           1.31777185e-03     7.47743063e-04     0.00000000e+00    
           1.32460869e-03     7.18357915e-04     0.00000000e+00    
           1.33957970e-03     6.92147878e-04     0.00000000e+00    
           1.36203237e-03     6.70959707e-04     0.00000000e+00    
           1.38960523e-03     6.55668147e-04     0.00000000e+00    
           1.42031885e-03     6.47420064e-04     0.00000000e+00    
           1.48593599e-03     6.49940863e-04     0.00000000e+00    
           1.51661132e-03     6.62091363e-04     0.00000000e+00    
           1.54349825e-03     6.80715195e-04     0.00000000e+00    
           1.56452856e-03     7.04550592e-04     0.00000000e+00    
           1.57903030e-03     7.32063025e-04     0.00000000e+00    
           1.58639136e-03     7.61486241e-04     0.00000000e+00    
           1.58556900e-03     7.91534316e-04     0.00000000e+00    
           1.55936310e-03     8.47539341e-04     0.00000000e+00    
           1.53181574e-03     8.69066804e-04     0.00000000e+00    
           1.49903446e-03     8.82710505e-04     0.00000000e+00    
           1.46441918e-03     8.88288894e-04     0.00000000e+00    
           1.42990681e-03     8.85482586e-04     0.00000000e+00    
           1.39642379e-03     8.75436876e-04     0.00000000e+00    
           1.36701879e-03     8.58203566e-04     0.00000000e+00    
           1.34362048e-03     8.34638253e-04     0.00000000e+00    
           1.94098719e-03     1.25975325e-03     0.00000000e+00    
           1.90222799e-03     1.25752436e-03     0.00000000e+00    
           1.86460931e-03     1.24745525e-03     0.00000000e+00    
           1.83070148e-03     1.22942193e-03     0.00000000e+00    
           1.80237577e-03     1.20452465e-03     0.00000000e+00    
           1.78093521e-03     1.17472629e-03     0.00000000e+00    
           1.76726270e-03     1.14153698e-03     0.00000000e+00    
           1.76676514e-03     1.07179640e-03     0.00000000e+00    
           1.78042590e-03     1.03907019e-03     0.00000000e+00    
           1.80305773e-03     1.01052877e-03     0.00000000e+00    
           1.83343573e-03     9.88421496e-04     0.00000000e+00    
           1.86711899e-03     9.74892988e-04     0.00000000e+00    
           1.90228864e-03     9.70199355e-04     0.00000000e+00    
           1.93973782e-03     9.72108915e-04     0.00000000e+00    
           1.31554280e-05    -2.84730646e-07     0.00000000e+00    
           4.29535394e-05     2.42803962e-05     0.00000000e+00    
           6.55124313e-05     5.44976392e-05     0.00000000e+00    
           7.96854147e-05     8.80792213e-05     0.00000000e+00    
           8.43043963e-05     1.23529360e-04     0.00000000e+00    
           8.02840077e-05     1.57674483e-04     0.00000000e+00    
           6.65554908e-05     1.90643317e-04     0.00000000e+00    
           4.46462873e-05     2.19157548e-04     0.00000000e+00    
           1.37593643e-05     2.40895766e-04     0.00000000e+00    
           1.89215445e-03     1.11197948e-03     0.00000000e+00    
           1.87657529e-03     1.11331977e-03     0.00000000e+00    
           1.85996143e-03     1.11150264e-03     0.00000000e+00    
           1.84247002e-03     1.10697234e-03     0.00000000e+00    
           1.82519970e-03     1.10016880e-03     0.00000000e+00    
           1.81137165e-03     1.08980830e-03     0.00000000e+00    
           1.80156284e-03     1.07733707e-03     0.00000000e+00    
           1.79565884e-03     1.06431497e-03     0.00000000e+00    
           1.79636187e-03     1.03812362e-03     0.00000000e+00    
           1.80334726e-03     1.02676149e-03     0.00000000e+00    
           1.81402452e-03     1.01818296e-03     0.00000000e+00    
           1.82711089e-03     1.01230154e-03     0.00000000e+00    
           1.84132636e-03     1.00994611e-03     0.00000000e+00    
           1.85747212e-03     1.00955076e-03     0.00000000e+00    
           1.87482079e-03     1.01204449e-03     0.00000000e+00    
           1.89231045e-03     1.01723184e-03     0.00000000e+00    
          -8.07970500e-05     3.80537167e-05     0.00000000e+00    
          -7.32819390e-05     5.20689209e-05     0.00000000e+00    
          -7.06916471e-05     6.69362635e-05     0.00000000e+00    
          -7.34100395e-05     8.18052649e-05     0.00000000e+00    
          -8.08114855e-05     9.53389390e-05     0.00000000e+00    
           5.51249424e-04     1.17281939e-04     0.00000000e+00    
           5.96973288e-04     1.37091833e-04     0.00000000e+00    
           6.35687262e-04     1.67533522e-04     0.00000000e+00    
           6.65211002e-04     2.05860109e-04     0.00000000e+00    
           6.84100087e-04     2.49797973e-04     0.00000000e+00    
           6.90664514e-04     2.96780752e-04     0.00000000e+00    
           6.85436651e-04     3.43710213e-04     0.00000000e+00    
           6.66734413e-04     3.86682164e-04     0.00000000e+00    
           6.35588658e-04     4.23248857e-04     0.00000000e+00    
           5.94111043e-04     4.50387975e-04     0.00000000e+00    
           5.46381867e-04     4.65902151e-04     0.00000000e+00    
           4.46282502e-04     4.60822164e-04     0.00000000e+00    
           3.99664306e-04     4.41043347e-04     0.00000000e+00    
           3.59807367e-04     4.10682347e-04     0.00000000e+00    
           3.29592614e-04     3.71669157e-04     0.00000000e+00    
           3.10933276e-04     3.26923589e-04     0.00000000e+00    
           3.04910820e-04     2.79835396e-04     0.00000000e+00    
           3.11121374e-04     2.33469604e-04     0.00000000e+00    
           3.30280716e-04     1.90725463e-04     0.00000000e+00    
           3.61633342e-04     1.54953406e-04     0.00000000e+00    
           4.03297279e-04     1.29031876e-04     0.00000000e+00    
           4.50988126e-04     1.13709742e-04     0.00000000e+00    
           1.88485126e-03     9.04041517e-04     0.00000000e+00    
           1.90251134e-03     9.33421717e-04     0.00000000e+00    
           1.91225426e-03     9.66205029e-04     0.00000000e+00    
           1.91316346e-03     1.00012112e-03     0.00000000e+00    
           1.90505176e-03     1.03230227e-03     0.00000000e+00    
           1.88852870e-03     1.06067804e-03     0.00000000e+00    
           1.86505530e-03     1.08254666e-03     0.00000000e+00    
           1.83774333e-03     1.09722652e-03     0.00000000e+00    
           1.80806324e-03     1.10472250e-03     0.00000000e+00    
           1.73916214e-03     1.10101246e-03     0.00000000e+00    
           1.70356198e-03     1.08864834e-03     0.00000000e+00    
           1.67288957e-03     1.06849079e-03     0.00000000e+00    
           1.64902385e-03     1.04244694e-03     0.00000000e+00    
           1.63346261e-03     1.01236254e-03     0.00000000e+00    
           1.62589247e-03     9.80998622e-04     0.00000000e+00    
           1.62666698e-03     9.49258741e-04     0.00000000e+00    
           1.63569069e-03     9.18597740e-04     0.00000000e+00    
           1.65448559e-03     8.90620693e-04     0.00000000e+00    
           1.71205436e-03     8.54211627e-04     0.00000000e+00    
           1.74313283e-03     8.47514486e-04     0.00000000e+00    
           1.77451735e-03     8.47017858e-04     0.00000000e+00    
           1.80521945e-03     8.52701778e-04     0.00000000e+00    
           1.83430465e-03     8.63608497e-04     0.00000000e+00    
           1.61628961e-03     7.87104073e-04     0.00000000e+00    
           1.64938252e-03     8.00203648e-04     0.00000000e+00    
           1.67887635e-03     8.19653971e-04     0.00000000e+00    
           1.70166628e-03     8.44877562e-04     0.00000000e+00    
           1.71758013e-03     8.73537501e-04     0.00000000e+00    
           1.72589463e-03     9.03910492e-04     0.00000000e+00    
           1.72553037e-03     9.35414573e-04     0.00000000e+00    
           1.71714893e-03     9.66696418e-04     0.00000000e+00    
           1.70006882e-03     9.95083479e-04     0.00000000e+00    
           1.67471287e-03     1.01881253e-03     0.00000000e+00    
           1.64365687e-03     1.03521044e-03     0.00000000e+00    
           1.61044800e-03     1.04307930e-03     0.00000000e+00    
           1.54203468e-03     1.03850837e-03     0.00000000e+00    
           1.51039357e-03     1.02542213e-03     0.00000000e+00    
           1.48233189e-03     1.00596517e-03     0.00000000e+00    
           1.45998294e-03     9.80877667e-04     0.00000000e+00    
           1.44414150e-03     9.51548340e-04     0.00000000e+00    
           1.43566797e-03     9.19694779e-04     0.00000000e+00    
           1.43590593e-03     8.87577015e-04     0.00000000e+00    
           1.44379446e-03     8.57101521e-04     0.00000000e+00    
           1.46014860e-03     8.29761382e-04     0.00000000e+00    
           1.48400664e-03     8.07391887e-04     0.00000000e+00    
           1.51350535e-03     7.91697646e-04     0.00000000e+00    
           1.54646172e-03     7.83030351e-04     0.00000000e+00    
           1.84425316e-03     1.02656090e-03     0.00000000e+00    
           1.86487602e-03     1.03483093e-03     0.00000000e+00    
           1.88151991e-03     1.04751275e-03     0.00000000e+00    
           1.89288193e-03     1.06361008e-03     0.00000000e+00    
           1.89842028e-03     1.08141021e-03     0.00000000e+00    
           1.89793401e-03     1.09949778e-03     0.00000000e+00    
           1.89146702e-03     1.11647428e-03     0.00000000e+00    
           1.87923783e-03     1.13034423e-03     0.00000000e+00    
           1.86336110e-03     1.13929377e-03     0.00000000e+00    
           1.84643304e-03     1.14202010e-03     0.00000000e+00    
           1.80778769e-03     1.13858702e-03     0.00000000e+00    
           1.78808963e-03     1.13094947e-03     0.00000000e+00    
           1.77140569e-03     1.11856905e-03     0.00000000e+00    
           1.75917149e-03     1.10258698e-03     0.00000000e+00    
           1.75282185e-03     1.08366937e-03     0.00000000e+00    
           1.75337680e-03     1.06456387e-03     0.00000000e+00    
           1.75950117e-03     1.04731228e-03     0.00000000e+00    
           1.77130033e-03     1.03358808e-03     0.00000000e+00    
           1.78616960e-03     1.02537859e-03     0.00000000e+00    
           1.80276821e-03     1.02261780e-03     0.00000000e+00    
           7.98253051e-04     4.63988428e-04     0.00000000e+00    
           8.16774787e-04     4.71985259e-04     0.00000000e+00    
           8.32276070e-04     4.84136748e-04     0.00000000e+00    
           8.43995251e-04     4.99832386e-04     0.00000000e+00    
           8.50518292e-04     5.17243752e-04     0.00000000e+00    
           8.52294033e-04     5.34949708e-04     0.00000000e+00    
           8.49366479e-04     5.51652687e-04     0.00000000e+00    
           8.41168454e-04     5.66835864e-04     0.00000000e+00    
           8.26783828e-04     5.78774489e-04     0.00000000e+00    
           8.09364021e-04     5.86435315e-04     0.00000000e+00    
           7.90006889e-04     5.90962067e-04     0.00000000e+00    
           7.50436215e-04     5.88237541e-04     0.00000000e+00    
           7.32312270e-04     5.80182706e-04     0.00000000e+00    
           7.17000687e-04     5.68683841e-04     0.00000000e+00    
           7.05170562e-04     5.54099679e-04     0.00000000e+00    
           6.97619864e-04     5.37712243e-04     0.00000000e+00    
           6.94791437e-04     5.19971712e-04     0.00000000e+00    
           6.97769865e-04     5.02178096e-04     0.00000000e+00    
           7.06233259e-04     4.85769211e-04     0.00000000e+00    
           7.20234762e-04     4.72864369e-04     0.00000000e+00    
           7.37933791e-04     4.64174576e-04     0.00000000e+00    
           7.57453206e-04     4.60299576e-04     0.00000000e+00    
           5.49390214e-04     4.83293086e-04     0.00000000e+00    
           5.35588944e-04     4.62724565e-04     0.00000000e+00    
           5.27807570e-04     4.39416472e-04     0.00000000e+00    
           5.26658143e-04     4.14728507e-04     0.00000000e+00    
           5.32230421e-04     3.91350884e-04     0.00000000e+00    
           5.46027906e-04     3.69109388e-04     0.00000000e+00    
           5.65887894e-04     3.51480383e-04     0.00000000e+00    
           5.89080970e-04     3.40971455e-04     0.00000000e+00    
           6.13177835e-04     3.35445890e-04     0.00000000e+00    
           6.62925479e-04     3.39585938e-04     0.00000000e+00    
           6.86038926e-04     3.49416398e-04     0.00000000e+00    
           7.06709223e-04     3.64289095e-04     0.00000000e+00    
           7.23365578e-04     3.83216626e-04     0.00000000e+00    
           7.35215028e-04     4.05446888e-04     0.00000000e+00    
           7.40283460e-04     4.29009611e-04     0.00000000e+00    
           7.38950097e-04     4.52218257e-04     0.00000000e+00    
           7.31143227e-04     4.73980675e-04     0.00000000e+00    
           7.16519426e-04     4.92857711e-04     0.00000000e+00    
           6.71771762e-04     5.16545493e-04     0.00000000e+00    
           6.45279419e-04     5.20786678e-04     0.00000000e+00    
           6.17728510e-04     5.20103495e-04     0.00000000e+00    
           5.91249263e-04     5.13085106e-04     0.00000000e+00    
           1.14421011e-03     5.40466630e-04     0.00000000e+00    
           1.16239197e-03     5.48332813e-04     0.00000000e+00    
           1.17831829e-03     5.59571839e-04     0.00000000e+00    
           1.19145971e-03     5.73666068e-04     0.00000000e+00    
           1.20043976e-03     5.90473297e-04     0.00000000e+00    
           1.20386959e-03     6.09381706e-04     0.00000000e+00    
           1.20140449e-03     6.28801004e-04     0.00000000e+00    
           1.19337207e-03     6.46018656e-04     0.00000000e+00    
           1.18107453e-03     6.59111131e-04     0.00000000e+00    
           1.16571202e-03     6.67466724e-04     0.00000000e+00    
           1.14703167e-03     6.71097019e-04     0.00000000e+00    
           1.10247172e-03     6.68425870e-04     0.00000000e+00    
           1.08159485e-03     6.59780810e-04     0.00000000e+00    
           1.06397644e-03     6.46823319e-04     0.00000000e+00    
           1.05105934e-03     6.30427327e-04     0.00000000e+00    
           1.04349758e-03     6.12400647e-04     0.00000000e+00    
           1.04100688e-03     5.94036013e-04     0.00000000e+00    
           1.04359910e-03     5.76772320e-04     0.00000000e+00    
           1.05184340e-03     5.61277848e-04     0.00000000e+00    
           1.06615829e-03     5.48573327e-04     0.00000000e+00    