<?xml version="1.0"?>
<VTKFile type="UnstructuredGrid" version="0.1">
  <UnstructuredGrid>
    <Piece NumberOfPoints="1034" NumberOfCells="1614">
      <Points>
        <DataArray type="Float32" NumberOfComponents="3">
           5.21582007e-01     5.11657000e-01     0.00000000e+00    
           5.07319987e-01     5.11657000e-01     0.00000000e+00    
           4.65243995e-01     5.17907977e-01     0.00000000e+00    
           4.65243995e-01     5.04921973e-01     0.00000000e+00    
           4.75246996e-01     5.11415005e-01     0.00000000e+00    
           5.33852994e-01     5.04921973e-01     0.00000000e+00    
           5.33852994e-01     5.17907977e-01     0.00000000e+00    
           4.83779997e-01     5.34618974e-01     0.00000000e+00    
           4.68984991e-01     5.34618974e-01     0.00000000e+00    
           4.76381987e-01     5.23841977e-01     0.00000000e+00    
           4.68984991e-01     4.66010004e-01     0.00000000e+00    
           4.83779997e-01     4.66010004e-01     0.00000000e+00    
           4.99920011e-01     5.34618974e-01     0.00000000e+00    
           4.89203990e-01     5.34618974e-01     0.00000000e+00    
           4.94562000e-01     5.22280991e-01     0.00000000e+00    
           4.89203990e-01     4.66010004e-01     0.00000000e+00    
           4.99920011e-01     4.66010004e-01     0.00000000e+00    
           5.32517016e-01     4.74112004e-01     0.00000000e+00    
           5.17961025e-01     4.74112004e-01     0.00000000e+00    
           5.33852994e-01     5.19801974e-01     0.00000000e+00    
           5.33852994e-01     5.29603004e-01     0.00000000e+00    
           5.19536972e-01     5.24702013e-01     0.00000000e+00    
           4.65243995e-01     5.29603004e-01     0.00000000e+00    
           4.65243995e-01     5.19801974e-01     0.00000000e+00    
           4.92487997e-01     5.17117977e-01     0.00000000e+00    
           4.76904988e-01     5.17117977e-01     0.00000000e+00    
           5.17996013e-01     5.27033985e-01     0.00000000e+00    
           5.04473984e-01     5.27033985e-01     0.00000000e+00    
           5.08446991e-01     4.83435005e-01     0.00000000e+00    
           4.94414002e-01     4.83435005e-01     0.00000000e+00    
           4.65243995e-01     4.83101994e-01     0.00000000e+00    
           4.65243995e-01     4.74415004e-01     0.00000000e+00    
           4.78336990e-01     4.78758007e-01     0.00000000e+00    
           5.33852994e-01     4.74415004e-01     0.00000000e+00    
           5.33852994e-01     4.83101994e-01     0.00000000e+00    
           4.80668008e-01     4.95810986e-01     0.00000000e+00    
           4.66084987e-01     4.95810986e-01     0.00000000e+00    
           4.93930012e-01     4.79214013e-01     0.00000000e+00    
           4.78967011e-01     4.79214013e-01     0.00000000e+00    
           5.09284973e-01     4.97658014e-01     0.00000000e+00    
           4.95503992e-01     4.97658014e-01     0.00000000e+00    
           5.33011973e-01     5.01751006e-01     0.00000000e+00    
           5.17829001e-01     5.01751006e-01     0.00000000e+00    
           4.95451003e-01     5.00564992e-01     0.00000000e+00    
           4.80922014e-01     5.00564992e-01     0.00000000e+00    
           5.25367022e-01     4.88312006e-01     0.00000000e+00    
           5.09521008e-01     4.88312006e-01     0.00000000e+00    
           4.65243995e-01     5.34618974e-01     0.00000000e+00    
           4.65243995e-01     4.66010004e-01     0.00000000e+00    
           5.33852994e-01     4.66010004e-01     0.00000000e+00    
           5.33852994e-01     5.34618974e-01     0.00000000e+00    
           5.21338999e-01     5.13502657e-01     0.00000000e+00    
           5.20626605e-01     5.15222490e-01     0.00000000e+00    
           5.19493401e-01     5.16699374e-01     0.00000000e+00    
           5.18016517e-01     5.17832637e-01     0.00000000e+00    
           5.16296625e-01     5.18545032e-01     0.00000000e+00    
           5.14451027e-01     5.18787980e-01     0.00000000e+00    
           5.12605369e-01     5.18545032e-01     0.00000000e+00    
           5.10885477e-01     5.17832637e-01     0.00000000e+00    
           5.09408593e-01     5.16699374e-01     0.00000000e+00    
           5.08275390e-01     5.15222490e-01     0.00000000e+00    
           5.07562995e-01     5.13502657e-01     0.00000000e+00    
           5.07562995e-01     5.09811342e-01     0.00000000e+00    
           5.08275390e-01     5.08091509e-01     0.00000000e+00    
           5.09408593e-01     5.06614625e-01     0.00000000e+00    
           5.10885477e-01     5.05481362e-01     0.00000000e+00    
           5.12605369e-01     5.04768968e-01     0.00000000e+00    
           5.14451027e-01     5.04526019e-01     0.00000000e+00    
           5.16296625e-01     5.04768968e-01     0.00000000e+00    
           5.18016517e-01     5.05481362e-01     0.00000000e+00    
           5.19493401e-01     5.06614625e-01     0.00000000e+00    
           5.20626605e-01     5.08091509e-01     0.00000000e+00    
           5.21338999e-01     5.09811342e-01     0.00000000e+00    
           4.66931671e-01     5.04409373e-01     0.00000000e+00    
           4.68693614e-01     5.04328012e-01     0.00000000e+00    
           4.70421344e-01     5.04682958e-01     0.00000000e+00    
           4.72008497e-01     5.05452335e-01     0.00000000e+00    
           4.73357379e-01     5.06588817e-01     0.00000000e+00    
           4.74384934e-01     5.08022368e-01     0.00000000e+00    
           4.75027919e-01     5.09664834e-01     0.00000000e+00    
           4.75028187e-01     5.13165236e-01     0.00000000e+00    
           4.74385172e-01     5.14807761e-01     0.00000000e+00    
           4.73357558e-01     5.16241372e-01     0.00000000e+00    
           4.72008646e-01     5.17377913e-01     0.00000000e+00    
           4.70421433e-01     5.18147290e-01     0.00000000e+00    
           4.68693614e-01     5.18502235e-01     0.00000000e+00    
           4.66931641e-01     5.18420875e-01     0.00000000e+00    
           5.32303810e-01     5.16964078e-01     0.00000000e+00    
           5.31043947e-01     5.15658796e-01     0.00000000e+00    
           5.30155540e-01     5.14077127e-01     0.00000000e+00    
           5.29696345e-01     5.12322068e-01     0.00000000e+00    
           5.29696345e-01     5.10507941e-01     0.00000000e+00    
           5.30155540e-01     5.08752882e-01     0.00000000e+00    
           5.31043947e-01     5.07171214e-01     0.00000000e+00    
           5.32303810e-01     5.05865932e-01     0.00000000e+00    
           4.68517244e-01     5.32760799e-01     0.00000000e+00    
           4.68509018e-01     5.30844629e-01     0.00000000e+00    
           4.68960851e-01     5.28982460e-01     0.00000000e+00    
           4.69846308e-01     5.27283132e-01     0.00000000e+00    
           4.71113682e-01     5.25845945e-01     0.00000000e+00    
           4.72688884e-01     5.24754822e-01     0.00000000e+00    
           4.74479854e-01     5.24073541e-01     0.00000000e+00    
           4.78284091e-01     5.24073601e-01     0.00000000e+00    
           4.80075032e-01     5.24754822e-01     0.00000000e+00    
           4.81650203e-01     5.25845885e-01     0.00000000e+00    
           4.82917547e-01     5.27283013e-01     0.00000000e+00    
           4.83803004e-01     5.28982282e-01     0.00000000e+00    
           4.84254897e-01     5.30844331e-01     0.00000000e+00    
           4.84246761e-01     5.32760441e-01     0.00000000e+00    
           4.82887864e-01     4.67691004e-01     0.00000000e+00    
           4.81620818e-01     4.69110936e-01     0.00000000e+00    
           4.80051905e-01     4.70188022e-01     0.00000000e+00    
           4.78271484e-01     4.70860153e-01     0.00000000e+00    
           4.76382166e-01     4.71088618e-01     0.00000000e+00    
           4.74492878e-01     4.70860243e-01     0.00000000e+00    
           4.72712427e-01     4.70188200e-01     0.00000000e+00    
           4.71143454e-01     4.69111174e-01     0.00000000e+00    
           4.69876349e-01     4.67691302e-01     0.00000000e+00    
           4.88103986e-01     5.33086061e-01     0.00000000e+00    
           4.87431526e-01     5.31323195e-01     0.00000000e+00    
           4.87231195e-01     5.29447019e-01     0.00000000e+00    
           4.87516224e-01     5.27581930e-01     0.00000000e+00    
           4.88267750e-01     5.25851250e-01     0.00000000e+00    
           4.89436030e-01     5.24369657e-01     0.00000000e+00    
           4.90943670e-01     5.23235261e-01     0.00000000e+00    
           4.92690891e-01     5.22523046e-01     0.00000000e+00    
           4.96432930e-01     5.22523701e-01     0.00000000e+00    
           4.98180002e-01     5.23235798e-01     0.00000000e+00    
           4.99687493e-01     5.24370134e-01     0.00000000e+00    
           5.00855684e-01     5.25851607e-01     0.00000000e+00    
           5.01607120e-01     5.27582109e-01     0.00000000e+00    
           5.01892149e-01     5.29447079e-01     0.00000000e+00    
           5.01691818e-01     5.31323016e-01     0.00000000e+00    
           5.01019418e-01     5.33085763e-01     0.00000000e+00    
           4.98371124e-01     4.67269689e-01     0.00000000e+00    
           4.96539861e-01     4.68064904e-01     0.00000000e+00    
           4.94562000e-01     4.68336672e-01     0.00000000e+00    
           4.92584139e-01     4.68064904e-01     0.00000000e+00    
           4.90752876e-01     4.67269689e-01     0.00000000e+00    
           5.32269001e-01     4.75995690e-01     0.00000000e+00    
           5.31541944e-01     4.77750987e-01     0.00000000e+00    
           5.30385315e-01     4.79258329e-01     0.00000000e+00    
           5.28877974e-01     4.80414927e-01     0.00000000e+00    
[...]
      <PointData>
        <DataArray type="Float32" Name="Displacement" NumberOfComponents="3">
           1.45869283e-03     6.64180960e-04     0.00000000e+00    
           1.43730349e-03     6.45241642e-04     0.00000000e+00    
           1.09110479e-05     6.64943305e-04     0.00000000e+00    
           1.75537261e-05     6.48510351e-04     0.00000000e+00    
           3.01751206e-05     6.62084552e-04     0.00000000e+00    
           1.96755375e-03     6.48510351e-04     0.00000000e+00    
           1.96091109e-03     6.64943305e-04     0.00000000e+00    
           2.90290074e-04     9.67740081e-04     0.00000000e+00    
           2.68051750e-04     9.66974709e-04     0.00000000e+00    
           2.80539709e-04     9.52630537e-04     0.00000000e+00    
           2.68051750e-04    -8.02531576e-06     0.00000000e+00    
           2.90290074e-04    -7.25990685e-06     0.00000000e+00    
           7.19435804e-04     9.17293015e-04     0.00000000e+00    
           7.01748009e-04     9.26262932e-04     0.00000000e+00    
           7.00231409e-04     9.05744324e-04     0.00000000e+00    
           7.01748009e-04    -4.87370671e-05     0.00000000e+00    
           7.19435804e-04    -5.77069659e-05     0.00000000e+00    
           1.74744416e-03     1.39206837e-04     0.00000000e+00    
           1.72614481e-03     1.34378308e-04     0.00000000e+00    
           1.79053599e-03     8.39907327e-04     0.00000000e+00    
           1.79142354e-03     8.52609286e-04     0.00000000e+00    
           1.76973315e-03     8.47280899e-04     0.00000000e+00    
          -1.58576440e-04     8.52609286e-04     0.00000000e+00    
          -1.59464063e-04     8.39907327e-04     0.00000000e+00    
           4.73349530e-04     7.64745579e-04     0.00000000e+00    
           4.50410211e-04     7.69621343e-04     0.00000000e+00    
           1.36935117e-03     8.47311807e-04     0.00000000e+00    
           1.34964811e-03     8.39639048e-04     0.00000000e+00    
           9.97771509e-04     3.19239974e-04     0.00000000e+00    
           9.77527699e-04     3.25205619e-04     0.00000000e+00    
           1.56167385e-04     1.85026220e-04     0.00000000e+00    
           1.66486207e-04     1.75160763e-04     0.00000000e+00    
           1.80722302e-04     1.94485750e-04     0.00000000e+00    
           2.11648620e-03     1.75160763e-04     0.00000000e+00    
           2.10616738e-03     1.85026220e-04     0.00000000e+00    
           1.84695440e-04     4.70692670e-04     0.00000000e+00    
           1.63564793e-04     4.48029721e-04     0.00000000e+00    
           5.14302868e-04     2.13714186e-04     0.00000000e+00    
           4.92773252e-04     2.08582991e-04     0.00000000e+00    
           1.03581382e-03     4.13839676e-04     0.00000000e+00    
           1.01579539e-03     4.49141022e-04     0.00000000e+00    
           1.71356881e-03     5.27232012e-04     0.00000000e+00    
           1.69092021e-03     5.24377916e-04     0.00000000e+00    
           5.60084940e-04     5.34324790e-04     0.00000000e+00    
           5.39314700e-04     5.34919847e-04     0.00000000e+00    
           1.54555542e-03     3.50413437e-04     0.00000000e+00    
           1.52215909e-03     3.53684620e-04     0.00000000e+00    
           0.00000000e+00     9.74999974e-04     0.00000000e+00    
           0.00000000e+00     0.00000000e+00     0.00000000e+00    
           1.94999995e-03     0.00000000e+00     0.00000000e+00    
           1.94999995e-03     9.74999974e-04     0.00000000e+00    
           1.45583472e-03     6.66589534e-04     0.00000000e+00    
           1.45264587e-03     6.67727960e-04     0.00000000e+00    
           1.44910195e-03     6.68344204e-04     0.00000000e+00    
           1.44540402e-03     6.68544671e-04     0.00000000e+00    
           1.44141074e-03     6.67588843e-04     0.00000000e+00    
           1.43767695e-03     6.65312167e-04     0.00000000e+00    
           1.43534958e-03     6.62311446e-04     0.00000000e+00    
           1.43384130e-03     6.59036974e-04     0.00000000e+00    
           1.43283827e-03     6.55247481e-04     0.00000000e+00    
           1.43336435e-03     6.51214737e-04     0.00000000e+00    
           1.43486855e-03     6.47858542e-04     0.00000000e+00    
           1.44006358e-03     6.43224164e-04     0.00000000e+00    
           1.44349388e-03     6.42122235e-04     0.00000000e+00    
           1.44695351e-03     6.41735911e-04     0.00000000e+00    
           1.45070953e-03     6.41716819e-04     0.00000000e+00    
           1.45484053e-03     6.42870611e-04     0.00000000e+00    
           1.45904871e-03     6.45259221e-04     0.00000000e+00    
           1.46193954e-03     6.49034977e-04     0.00000000e+00    
           1.46304606e-03     6.53021096e-04     0.00000000e+00    
           1.46278995e-03     6.56206103e-04     0.00000000e+00    
           1.46180904e-03     6.58969046e-04     0.00000000e+00    
           1.46039960e-03     6.61615224e-04     0.00000000e+00    
           2.10123053e-05     6.47455454e-04     0.00000000e+00    
           2.45976335e-05     6.48349698e-04     0.00000000e+00    
           2.69923457e-05     6.49930036e-04     0.00000000e+00    
           2.89232630e-05     6.51797396e-04     0.00000000e+00    
           3.04424502e-05     6.54300209e-04     0.00000000e+00    
           3.11758704e-05     6.57040684e-04     0.00000000e+00    
           3.09176648e-05     6.59788842e-04     0.00000000e+00    
           2.88313113e-05     6.63930376e-04     0.00000000e+00    
           2.72940615e-05     6.65429980e-04     0.00000000e+00    
           2.53015369e-05     6.66952168e-04     0.00000000e+00    
           2.29265224e-05     6.68059743e-04     0.00000000e+00    
           2.00268514e-05     6.68723078e-04     0.00000000e+00    
           1.64205376e-05     6.68796827e-04     0.00000000e+00    
           1.30380386e-05     6.66917185e-04     0.00000000e+00    
           1.95968268e-03     6.63006562e-04     0.00000000e+00    
           1.95872644e-03     6.60907477e-04     0.00000000e+00    
           1.95822911e-03     6.58040226e-04     0.00000000e+00    
           1.95854064e-03     6.55251497e-04     0.00000000e+00    
           1.95990247e-03     6.52666495e-04     0.00000000e+00    
           1.96164288e-03     6.50848204e-04     0.00000000e+00    
           1.96353043e-03     6.49879221e-04     0.00000000e+00    
           1.96543173e-03     6.49261347e-04     0.00000000e+00    
           2.67623400e-04     9.64307284e-04     0.00000000e+00    
           2.67890020e-04     9.62004066e-04     0.00000000e+00    
           2.68596195e-04     9.59918951e-04     0.00000000e+00    
           2.69679906e-04     9.57787386e-04     0.00000000e+00    
           2.71387980e-04     9.55808151e-04     0.00000000e+00    
           2.73854617e-04     9.53971583e-04     0.00000000e+00    
           2.77142070e-04     9.52657545e-04     0.00000000e+00    
           2.83754984e-04     9.53629147e-04     0.00000000e+00    
           2.85824237e-04     9.54778749e-04     0.00000000e+00    
           2.87678587e-04     9.56080039e-04     0.00000000e+00    
           2.89317890e-04     9.57676210e-04     0.00000000e+00    
           2.90595985e-04     9.60222736e-04     0.00000000e+00    
           2.91036326e-04     9.62745631e-04     0.00000000e+00    
           2.91006494e-04     9.65183252e-04     0.00000000e+00    
           2.89015821e-04    -4.95805034e-06     0.00000000e+00    
           2.87288800e-04    -2.79461119e-06     0.00000000e+00    
           2.84739479e-04    -1.08718359e-06     0.00000000e+00    
           2.81325920e-04     2.84717061e-07     0.00000000e+00    
           2.77996092e-04     3.02260332e-08     0.00000000e+00    
           2.75316677e-04    -6.95589335e-07     0.00000000e+00    
           2.73073820e-04    -1.62800518e-06     0.00000000e+00    
           2.70990276e-04    -3.18229741e-06     0.00000000e+00    
           2.69016309e-04    -5.48452545e-06     0.00000000e+00    
           6.99226453e-04     9.24810360e-04     0.00000000e+00    
           6.97098963e-04     9.22936306e-04     0.00000000e+00    
           6.95458730e-04     9.20756138e-04     0.00000000e+00    
           6.94314775e-04     9.17960191e-04     0.00000000e+00    
           6.94335846e-04     9.15226119e-04     0.00000000e+00    
           6.94698479e-04     9.12946998e-04     0.00000000e+00    
           6.95555820e-04     9.10638890e-04     0.00000000e+00    
           6.97069685e-04     9.08146554e-04     0.00000000e+00    
           7.04251579e-04     9.04570741e-04     0.00000000e+00    
           7.07891420e-04     9.04908811e-04     0.00000000e+00    
           7.10966706e-04     9.05794033e-04     0.00000000e+00    
           7.13408750e-04     9.06833564e-04     0.00000000e+00    
           7.15351838e-04     9.08002490e-04     0.00000000e+00    
           7.17212039e-04     9.09488474e-04     0.00000000e+00    
           7.18676776e-04     9.11579642e-04     0.00000000e+00    
           7.19434989e-04     9.14198055e-04     0.00000000e+00    
           7.18466530e-04    -5.43834685e-05     0.00000000e+00    
           7.16152485e-04    -5.11308608e-05     0.00000000e+00    
           7.12659501e-04    -4.85544733e-05     0.00000000e+00    
           7.08579202e-04    -4.76877067e-05     0.00000000e+00    
           7.05080398e-04    -4.78609218e-05     0.00000000e+00    
           1.74630934e-03     1.40887496e-04     0.00000000e+00    
           1.74503273e-03     1.42122139e-04     0.00000000e+00    
           1.74355577e-03     1.43439873e-04     0.00000000e+00    
           1.74101081e-03     1.45430604e-04     0.00000000e+00    
           1.73736806e-03     1.46523482e-04     0.00000000e+00    
           1.73388841e-03     1.46143240e-04     0.00000000e+00    
           1.73127884e-03     1.45092548e-04     0.00000000e+00    
           1.72940665e-03     1.43759869e-04     0.00000000e+00    
           1.72799150e-03     1.42193763e-04     0.00000000e+00    
           1.72658870e-03     1.40020726e-04     0.00000000e+00    
           1.72591303e-03     1.37308481e-04     0.00000000e+00    
           1.72704773e-03     1.31869732e-04     0.00000000e+00    
           1.72863051e-03     1.29344058e-04     0.00000000e+00    
           1.73082959e-03     1.27241059e-04     0.00000000e+00    
           1.73378235e-03     1.25797102e-04     0.00000000e+00    
           1.73710729e-03     1.25423612e-04     0.00000000e+00    
           1.74006447e-03     1.25875667e-04     0.00000000e+00    
           1.74274831e-03     1.26910978e-04     0.00000000e+00    
           1.74530747e-03     1.28523257e-04     0.00000000e+00    
           1.74725929e-03     1.31318084e-04     0.00000000e+00    
           1.74814288e-03     1.34329253e-04     0.00000000e+00    
           1.74818048e-03     1.37005511e-04     0.00000000e+00    
           1.78965193e-03     8.54923856e-04     0.00000000e+00    
           1.78719766e-03     8.56947969e-04     0.00000000e+00    
           1.78395095e-03     8.58403626e-04     0.00000000e+00    
           1.78045896e-03     8.58583371e-04     0.00000000e+00    
           1.77714985e-03     8.58025334e-04     0.00000000e+00    
           1.77411817e-03     8.56441096e-04     0.00000000e+00    
           1.77202467e-03     8.53850099e-04     0.00000000e+00    
           1.77070952e-03     8.51286168e-04     0.00000000e+00    
           1.77007425e-03     8.49162287e-04     0.00000000e+00    
           1.76974339e-03     8.45168193e-04     0.00000000e+00    
           1.77038508e-03     8.43115209e-04     0.00000000e+00    
           1.77153863e-03     8.40977184e-04     0.00000000e+00    
           1.77356496e-03     8.38647713e-04     0.00000000e+00    
           1.77618430e-03     8.36805557e-04     0.00000000e+00    
           1.78007619e-03     8.35675921e-04     0.00000000e+00    
           1.78367156e-03     8.36126273e-04     0.00000000e+00    
           1.78647856e-03     8.37169297e-04     0.00000000e+00    
           1.78860733e-03     8.38387234e-04     0.00000000e+00    
          -1.58094757e-04     8.41871253e-04     0.00000000e+00    
          -1.57172937e-04     8.44068883e-04     0.00000000e+00    
          -1.56909940e-04     8.46286304e-04     0.00000000e+00    
          -1.57122384e-04     8.48551805e-04     0.00000000e+00    
          -1.57660368e-04     8.50464276e-04     0.00000000e+00    
           4.73571417e-04     7.67368998e-04     0.00000000e+00    
           4.73221327e-04     7.70002662e-04     0.00000000e+00    
           4.72015381e-04     7.72022991e-04     0.00000000e+00    
           4.70839994e-04     7.73761596e-04     0.00000000e+00    
           4.69010032e-04     7.75564229e-04     0.00000000e+00    
           4.65937599e-04     7.77551613e-04     0.00000000e+00    
           4.62351600e-04     7.77815992e-04     0.00000000e+00    
           4.59601724e-04     7.77476991e-04     0.00000000e+00    
           4.57162794e-04     7.76975416e-04     0.00000000e+00    
           4.54897148e-04     7.76116911e-04     0.00000000e+00    
           4.52614127e-04     7.74376269e-04     0.00000000e+00    
           4.51208529e-04     7.71861989e-04     0.00000000e+00    
           4.50130872e-04     7.67203455e-04     0.00000000e+00    
           4.50288644e-04     7.64944416e-04     0.00000000e+00    
           4.50961001e-04     7.62298994e-04     0.00000000e+00    
           4.52538283e-04     7.59580464e-04     0.00000000e+00    
           4.55082452e-04     7.57368689e-04     0.00000000e+00    
           4.58511262e-04     7.56071182e-04     0.00000000e+00    
           4.61238174e-04     7.55725603e-04     0.00000000e+00    
           4.63862612e-04     7.55698478e-04     0.00000000e+00    
           4.66694211e-04     7.56354653e-04     0.00000000e+00    
           4.69175400e-04     7.57936272e-04     0.00000000e+00    
           4.71203559e-04     7.60043215e-04     0.00000000e+00    
           4.72607411e-04     7.62354932e-04     0.00000000e+00    
           1.36810041e-03     8.49177362e-04     0.00000000e+00    
           1.36609492e-03     8.50927841e-04     0.00000000e+00    
           1.36349560e-03     8.52328900e-04     0.00000000e+00    
           1.36046193e-03     8.53169069e-04     0.00000000e+00    
           1.35690102e-03     8.53076228e-04     0.00000000e+00    
           1.35343126e-03     8.51834717e-04     0.00000000e+00    
           1.35065138e-03     8.49585980e-04     0.00000000e+00    
           1.34906766e-03     8.46834737e-04     0.00000000e+00    
           1.34832901e-03     8.44052935e-04     0.00000000e+00    
           1.34873902e-03     8.41588073e-04     0.00000000e+00    
           1.35089259e-03     8.37934844e-04     0.00000000e+00    
           1.35263009e-03     8.36124411e-04     0.00000000e+00    
           1.35512499e-03     8.34460952e-04     0.00000000e+00    
           1.35859195e-03     8.32871068e-04     0.00000000e+00    
           1.36263540e-03     8.33192724e-04     0.00000000e+00    
           1.36558642e-03     8.34548613e-04     0.00000000e+00    
           1.36784813e-03     8.36328196e-04     0.00000000e+00    
           1.36999693e-03     8.38985492e-04     0.00000000e+00    
           1.37062848e-03     8.42471141e-04     0.00000000e+00    
           1.37024524e-03     8.45215982e-04     0.00000000e+00    
           9.98394331e-04     3.21147993e-04     0.00000000e+00    
           9.98286298e-04     3.23320419e-04     0.00000000e+00    
           9.97824012e-04     3.26218229e-04     0.00000000e+00    
           9.95692913e-04     3.29057773e-04     0.00000000e+00    
           9.93445516e-04     3.30770039e-04     0.00000000e+00    
           9.91357025e-04     3.31927877e-04     0.00000000e+00    
           9.88693675e-04     3.32620111e-04     0.00000000e+00    
           9.85068735e-04     3.32469936e-04     0.00000000e+00    
           9.81927733e-04     3.30647657e-04     0.00000000e+00    
           9.79922130e-04     3.28783179e-04     0.00000000e+00    
           9.78487311e-04     3.27000977e-04     0.00000000e+00    
           9.76921991e-04     3.23548738e-04     0.00000000e+00    
           9.76698240e-04     3.21575761e-04     0.00000000e+00    
           9.76922340e-04     3.19142418e-04     0.00000000e+00    
           9.78121301e-04     3.16537276e-04     0.00000000e+00    
           9.80452751e-04     3.14002507e-04     0.00000000e+00    
           9.83991427e-04     3.12122545e-04     0.00000000e+00    
           9.87579231e-04     3.11861368e-04     0.00000000e+00    
           9.90888686e-04     3.12680349e-04     0.00000000e+00    
           9.93561000e-04     3.14212462e-04     0.00000000e+00    
           9.95450770e-04     3.15736135e-04     0.00000000e+00    
           9.96890594e-04     3.17480823e-04     0.00000000e+00    
           1.69453910e-04     1.74585424e-04     0.00000000e+00    
           1.72883752e-04     1.74112865e-04     0.00000000e+00    
           1.76682064e-04     1.74864967e-04     0.00000000e+00    
           1.79987706e-04     1.77054288e-04     0.00000000e+00    
           1.82079704e-04     1.79558469e-04     0.00000000e+00    
           1.83369164e-04     1.82298769e-04     0.00000000e+00    
           1.84380158e-04     1.85587822e-04     0.00000000e+00    
           1.84088945e-04     1.89524711e-04     0.00000000e+00    
           1.82649921e-04     1.92494452e-04     0.00000000e+00    
           1.78550166e-04     1.96055495e-04     0.00000000e+00    
           1.76152171e-04     1.97437796e-04     0.00000000e+00    
           1.73210210e-04     1.98872891e-04     0.00000000e+00    
           1.69746549e-04     1.99690345e-04     0.00000000e+00    
           1.65931619e-04     1.99026268e-04     0.00000000e+00    
           1.62866185e-04     1.97472036e-04     0.00000000e+00    
           1.60077936e-04     1.95378103e-04     0.00000000e+00    
           1.57846298e-04     1.92298481e-04     0.00000000e+00    
           1.56399779e-04     1.88737220e-04     0.00000000e+00    
           2.10705586e-03     1.81551513e-04     0.00000000e+00    
           2.10879440e-03     1.78673115e-04     0.00000000e+00    
           2.11125356e-03     1.76774585e-04     0.00000000e+00    
           2.11387360e-03     1.75801091e-04     0.00000000e+00    
           1.81330484e-04     4.72076965e-04     0.00000000e+00    
           1.77864335e-04     4.72606451e-04     0.00000000e+00    
           1.74475019e-04     4.72843007e-04     0.00000000e+00    
           1.70598112e-04     4.72642219e-04     0.00000000e+00    
           1.66277256e-04     4.71635023e-04     0.00000000e+00    
           1.62560536e-04     4.69224440e-04     0.00000000e+00    
           1.59965159e-04     4.65673656e-04     0.00000000e+00    
           1.58701936e-04     4.62028402e-04     0.00000000e+00    
           1.58250536e-04     4.58039140e-04     0.00000000e+00    
           1.58928015e-04     4.54140827e-04     0.00000000e+00    
           1.60907730e-04     4.50626016e-04     0.00000000e+00    
           1.66592683e-04     4.46202263e-04     0.00000000e+00    
           1.69975552e-04     4.44692472e-04     0.00000000e+00    
           1.74014946e-04     4.43782919e-04     0.00000000e+00    
           1.78222515e-04     4.44236794e-04     0.00000000e+00    
           1.82113567e-04     4.45724989e-04     0.00000000e+00    
           1.85366502e-04     4.48236242e-04     0.00000000e+00    
           1.88074322e-04     4.51347063e-04     0.00000000e+00    
           1.89827100e-04     4.55497095e-04     0.00000000e+00    
           1.90418665e-04     4.59974981e-04     0.00000000e+00    