<?xml version="1.0"?>
<VTKFile type="UnstructuredGrid" version="0.1">
  <UnstructuredGrid>
    <Piece NumberOfPoints="1034" NumberOfCells="1614">
      <Points>
        <DataArray type="Float32" NumberOfComponents="3">
           5.21582007e-01     5.11657000e-01     0.00000000e+00    
           5.07319987e-01     5.11657000e-01     0.00000000e+00    
           4.65243995e-01     5.17907977e-01     0.00000000e+00    
           4.65243995e-01     5.04921973e-01     0.00000000e+00    
           4.75246996e-01     5.11415005e-01     0.00000000e+00    
           5.33852994e-01     5.04921973e-01     0.00000000e+00    
           5.33852994e-01     5.17907977e-01     0.00000000e+00    
           4.83779997e-01     5.34618974e-01     0.00000000e+00    
           4.68984991e-01     5.34618974e-01     0.00000000e+00    
           4.76381987e-01     5.23841977e-01     0.00000000e+00    
           4.68984991e-01     4.66010004e-01     0.00000000e+00    
           4.83779997e-01     4.66010004e-01     0.00000000e+00    
           4.99920011e-01     5.34618974e-01     0.00000000e+00    
           4.89203990e-01     5.34618974e-01     0.00000000e+00    
           4.94562000e-01     5.22280991e-01     0.00000000e+00    
           4.89203990e-01     4.66010004e-01     0.00000000e+00    
           4.99920011e-01     4.66010004e-01     0.00000000e+00    
           5.32517016e-01     4.74112004e-01     0.00000000e+00    
           5.17961025e-01     4.74112004e-01     0.00000000e+00    
           5.33852994e-01     5.19801974e-01     0.00000000e+00    
           5.33852994e-01     5.29603004e-01     0.00000000e+00    
           5.19536972e-01     5.24702013e-01     0.00000000e+00    
           4.65243995e-01     5.29603004e-01     0.00000000e+00    
           4.65243995e-01     5.19801974e-01     0.00000000e+00    
           4.92487997e-01     5.17117977e-01     0.00000000e+00    
           4.76904988e-01     5.17117977e-01     0.00000000e+00    
           5.17996013e-01     5.27033985e-01     0.00000000e+00    
           5.04473984e-01     5.27033985e-01     0.00000000e+00    
           5.08446991e-01     4.83435005e-01     0.00000000e+00    
           4.94414002e-01     4.83435005e-01     0.00000000e+00    
           4.65243995e-01     4.83101994e-01     0.00000000e+00    
           4.65243995e-01     4.74415004e-01     0.00000000e+00    
           4.78336990e-01     4.78758007e-01     0.00000000e+00    
           5.33852994e-01     4.74415004e-01     0.00000000e+00    
           5.33852994e-01     4.83101994e-01     0.00000000e+00    
           4.80668008e-01     4.95810986e-01     0.00000000e+00    
           4.66084987e-01     4.95810986e-01     0.00000000e+00    
           4.93930012e-01     4.79214013e-01     0.00000000e+00    
           4.78967011e-01     4.79214013e-01     0.00000000e+00    
           5.09284973e-01     4.97658014e-01     0.00000000e+00    
           4.95503992e-01     4.97658014e-01     0.00000000e+00    
           5.33011973e-01     5.01751006e-01     0.00000000e+00    
           5.17829001e-01     5.01751006e-01     0.00000000e+00    
           4.95451003e-01     5.00564992e-01     0.00000000e+00    
           4.80922014e-01     5.00564992e-01     0.00000000e+00    
           5.25367022e-01     4.88312006e-01     0.00000000e+00    
           5.09521008e-01     4.88312006e-01     0.00000000e+00    
           4.65243995e-01     5.34618974e-01     0.00000000e+00    
           4.65243995e-01     4.66010004e-01     0.00000000e+00    
           5.33852994e-01     4.66010004e-01     0.00000000e+00    
           5.33852994e-01     5.34618974e-01     0.00000000e+00    
           5.21338999e-01     5.13502657e-01     0.00000000e+00    
           5.20626605e-01     5.15222490e-01     0.00000000e+00    
           5.19493401e-01     5.16699374e-01     0.00000000e+00    
           5.18016517e-01     5.17832637e-01     0.00000000e+00    
           5.16296625e-01     5.18545032e-01     0.00000000e+00    
           5.14451027e-01     5.18787980e-01     0.00000000e+00    
           5.12605369e-01     5.18545032e-01     0.00000000e+00    
           5.10885477e-01     5.17832637e-01     0.00000000e+00    
           5.09408593e-01     5.16699374e-01     0.00000000e+00    
           5.08275390e-01     5.15222490e-01     0.00000000e+00    
           5.07562995e-01     5.13502657e-01     0.00000000e+00    
           5.07562995e-01     5.09811342e-01     0.00000000e+00    
           5.08275390e-01     5.08091509e-01     0.00000000e+00    
           5.09408593e-01     5.06614625e-01     0.00000000e+00    
           5.10885477e-01     5.05481362e-01     0.00000000e+00    
           5.12605369e-01     5.04768968e-01     0.00000000e+00    
           5.14451027e-01     5.04526019e-01     0.00000000e+00    
           5.16296625e-01     5.04768968e-01     0.00000000e+00    
           5.18016517e-01     5.05481362e-01     0.00000000e+00    
           5.19493401e-01     5.06614625e-01     0.00000000e+00    
           5.20626605e-01     5.08091509e-01     0.00000000e+00    
           5.21338999e-01     5.09811342e-01     0.00000000e+00    
           4.66931671e-01     5.04409373e-01     0.00000000e+00    
           4.68693614e-01     5.04328012e-01     0.00000000e+00    
           4.70421344e-01     5.04682958e-01     0.00000000e+00    
           4.72008497e-01     5.05452335e-01     0.00000000e+00    
           4.73357379e-01     5.06588817e-01     0.00000000e+00    
           4.74384934e-01     5.08022368e-01     0.00000000e+00    
           4.75027919e-01     5.09664834e-01     0.00000000e+00    
           4.75028187e-01     5.13165236e-01     0.00000000e+00    
           4.74385172e-01     5.14807761e-01     0.00000000e+00    
           4.73357558e-01     5.16241372e-01     0.00000000e+00    
           4.72008646e-01     5.17377913e-01     0.00000000e+00    
           4.70421433e-01     5.18147290e-01     0.00000000e+00    
           4.68693614e-01     5.18502235e-01     0.00000000e+00    
           4.66931641e-01     5.18420875e-01     0.00000000e+00    
           5.32303810e-01     5.16964078e-01     0.00000000e+00    
           5.31043947e-01     5.15658796e-01     0.00000000e+00    
           5.30155540e-01     5.14077127e-01     0.00000000e+00    
           5.29696345e-01     5.12322068e-01     0.00000000e+00    
           5.29696345e-01     5.10507941e-01     0.00000000e+00    
           5.30155540e-01     5.08752882e-01     0.00000000e+00    
           5.31043947e-01     5.07171214e-01     0.00000000e+00    
           5.32303810e-01     5.05865932e-01     0.00000000e+00    
           4.68517244e-01     5.32760799e-01     0.00000000e+00    
           4.68509018e-01     5.30844629e-01     0.00000000e+00    
           4.68960851e-01     5.28982460e-01     0.00000000e+00    
           4.69846308e-01     5.27283132e-01     0.00000000e+00    
           4.71113682e-01     5.25845945e-01     0.00000000e+00    
           4.72688884e-01     5.24754822e-01     0.00000000e+00    
           4.74479854e-01     5.24073541e-01     0.00000000e+00    
           4.78284091e-01     5.24073601e-01     0.00000000e+00    
           4.80075032e-01     5.24754822e-01     0.00000000e+00    
           4.81650203e-01     5.25845885e-01     0.00000000e+00    
           4.82917547e-01     5.27283013e-01     0.00000000e+00    
           4.83803004e-01     5.28982282e-01     0.00000000e+00    
           4.84254897e-01     5.30844331e-01     0.00000000e+00    
           4.84246761e-01     5.32760441e-01     0.00000000e+00    
           4.82887864e-01     4.67691004e-01     0.00000000e+00    
           4.81620818e-01     4.69110936e-01     0.00000000e+00    
           4.80051905e-01     4.70188022e-01     0.00000000e+00    
           4.78271484e-01     4.70860153e-01     0.00000000e+00    
           4.76382166e-01     4.71088618e-01     0.00000000e+00    
           4.74492878e-01     4.70860243e-01     0.00000000e+00    
           4.72712427e-01     4.70188200e-01     0.00000000e+00    
           4.71143454e-01     4.69111174e-01     0.00000000e+00    
           4.69876349e-01     4.67691302e-01     0.00000000e+00    
           4.88103986e-01     5.33086061e-01     0.00000000e+00    
           4.87431526e-01     5.31323195e-01     0.00000000e+00    
           4.87231195e-01     5.29447019e-01     0.00000000e+00    
           4.87516224e-01     5.27581930e-01     0.00000000e+00    
           4.88267750e-01     5.25851250e-01     0.00000000e+00    
           4.89436030e-01     5.24369657e-01     0.00000000e+00    
           4.90943670e-01     5.23235261e-01     0.00000000e+00    
           4.92690891e-01     5.22523046e-01     0.00000000e+00    
           4.96432930e-01     5.22523701e-01     0.00000000e+00    
           4.98180002e-01     5.23235798e-01     0.00000000e+00    
           4.99687493e-01     5.24370134e-01     0.00000000e+00    
           5.00855684e-01     5.25851607e-01     0.00000000e+00    
           5.01607120e-01     5.27582109e-01     0.00000000e+00    
           5.01892149e-01     5.29447079e-01     0.00000000e+00    
           5.01691818e-01     5.31323016e-01     0.00000000e+00    
           5.01019418e-01     5.33085763e-01     0.00000000e+00    
           4.98371124e-01     4.67269689e-01     0.00000000e+00    
           4.96539861e-01     4.68064904e-01     0.00000000e+00    
           4.94562000e-01     4.68336672e-01     0.00000000e+00    
           4.92584139e-01     4.68064904e-01     0.00000000e+00    
           4.90752876e-01     4.67269689e-01     0.00000000e+00    
           5.32269001e-01     4.75995690e-01     0.00000000e+00    
           5.31541944e-01     4.77750987e-01     0.00000000e+00    
           5.30385315e-01     4.79258329e-01     0.00000000e+00    
           5.28877974e-01     4.80414927e-01     0.00000000e+00    
[...]
      <PointData>
        <DataArray type="Float32" Name="Displacement" NumberOfComponents="3">
           1.56909996e-03     7.15795206e-04     0.00000000e+00    
           1.54772762e-03     6.93236128e-04     0.00000000e+00    
           1.95171451e-05     7.13687565e-04     0.00000000e+00    
           2.64097052e-05     6.97220559e-04     0.00000000e+00    
           3.89113557e-05     7.10929336e-04     0.00000000e+00    
           2.12640967e-03     6.97220559e-04     0.00000000e+00    
           2.11951719e-03     7.13687565e-04     0.00000000e+00    
           3.15311714e-04     1.04080210e-03     0.00000000e+00    
           2.93081976e-04     1.03962538e-03     0.00000000e+00    
           3.05818976e-04     1.02539861e-03     0.00000000e+00    
           2.93081976e-04    -1.03746570e-05     0.00000000e+00    
           3.15311714e-04    -9.19794093e-06     0.00000000e+00    
           7.83554860e-04     9.87945008e-04     0.00000000e+00    
           7.65995588e-04     9.96662653e-04     0.00000000e+00    
           7.64639815e-04     9.76002368e-04     0.00000000e+00    
           7.65995588e-04    -5.33373459e-05     0.00000000e+00    
           7.83554860e-04    -6.20549545e-05     0.00000000e+00    
           1.88088370e-03     1.47731189e-04     0.00000000e+00    
           1.85958156e-03     1.42446268e-04     0.00000000e+00    
           1.93069456e-03     9.05040244e-04     0.00000000e+00    
           1.93064928e-03     9.17780271e-04     0.00000000e+00    
           1.90942164e-03     9.11078183e-04     0.00000000e+00    
          -1.69350664e-04     9.17780271e-04     0.00000000e+00    
          -1.69305393e-04     9.05040244e-04     0.00000000e+00    
           5.16690954e-04     8.19419569e-04     0.00000000e+00    
           4.93738509e-04     8.24386254e-04     0.00000000e+00    
           1.47265510e-03     9.11486917e-04     0.00000000e+00    
           1.45297067e-03     9.05859866e-04     0.00000000e+00    
           1.07677234e-03     3.43355117e-04     0.00000000e+00    
           1.05654751e-03     3.46142508e-04     0.00000000e+00    
           1.70364641e-04     1.98584225e-04     0.00000000e+00    
           1.81499519e-04     1.88637176e-04     0.00000000e+00    
           1.95318367e-04     2.09257720e-04     0.00000000e+00    
           2.28149956e-03     1.88637176e-04     0.00000000e+00    
           2.27036467e-03     1.98584225e-04     0.00000000e+00    
           2.02790645e-04     5.02140902e-04     0.00000000e+00    
           1.81643147e-04     4.80695191e-04     0.00000000e+00    
           5.59989188e-04     2.29762736e-04     0.00000000e+00    
           5.38480235e-04     2.23468800e-04     0.00000000e+00    
           1.11459172e-03     4.44488163e-04     0.00000000e+00    
           1.09462708e-03     4.80790361e-04     0.00000000e+00    
           1.84890709e-03     5.65297378e-04     0.00000000e+00    
           1.82630401e-03     5.62593807e-04     0.00000000e+00    
           6.08962728e-04     5.70936303e-04     0.00000000e+00    
           5.88217168e-04     5.72664489e-04     0.00000000e+00    
           1.66840362e-03     3.74100578e-04     0.00000000e+00    
           1.64502813e-03     3.79558012e-04     0.00000000e+00    
           0.00000000e+00     1.04999996e-03     0.00000000e+00    
           0.00000000e+00     0.00000000e+00     0.00000000e+00    
           2.09999993e-03     0.00000000e+00     0.00000000e+00    
           2.09999993e-03     1.04999996e-03     0.00000000e+00    
           1.56577316e-03     7.18113966e-04     0.00000000e+00    
           1.56215078e-03     7.19070958e-04     0.00000000e+00    
           1.55823492e-03     7.19410658e-04     0.00000000e+00    
           1.55424478e-03     7.19257281e-04     0.00000000e+00    
           1.55006966e-03     7.17861636e-04     0.00000000e+00    
           1.54627801e-03     7.15120288e-04     0.00000000e+00    
           1.54399488e-03     7.11647212e-04     0.00000000e+00    
           1.54266949e-03     7.07930769e-04     0.00000000e+00    
           1.54197798e-03     7.03781145e-04     0.00000000e+00    
           1.54288090e-03     6.99463882e-04     0.00000000e+00    
           1.54482212e-03     6.95921073e-04     0.00000000e+00    
           1.55095151e-03     6.91281806e-04     0.00000000e+00    
           1.55481615e-03     6.90345827e-04     0.00000000e+00    
           1.55865715e-03     6.90219575e-04     0.00000000e+00    
           1.56272203e-03     6.90524408e-04     0.00000000e+00    
           1.56705093e-03     6.92112837e-04     0.00000000e+00    
           1.57128798e-03     6.94985152e-04     0.00000000e+00    
           1.57409173e-03     6.99222204e-04     0.00000000e+00    
           1.57502678e-03     7.03687547e-04     0.00000000e+00    
           1.57448987e-03     7.07267202e-04     0.00000000e+00    
           1.57313410e-03     7.10330321e-04     0.00000000e+00    
           1.57128577e-03     7.13167130e-04     0.00000000e+00    
           2.98606501e-05     6.96206000e-04     0.00000000e+00    
           3.34302204e-05     6.97114214e-04     0.00000000e+00    
           3.58336220e-05     6.98729826e-04     0.00000000e+00    
           3.77511788e-05     7.00625940e-04     0.00000000e+00    
           3.92336551e-05     7.03136728e-04     0.00000000e+00    
           3.99434284e-05     7.05866842e-04     0.00000000e+00    
           3.96697324e-05     7.08619540e-04     0.00000000e+00    
           3.75446980e-05     7.12804846e-04     0.00000000e+00    
           3.59743863e-05     7.14340946e-04     0.00000000e+00    
           3.39377148e-05     7.15884846e-04     0.00000000e+00    
           3.15213219e-05     7.16982875e-04     0.00000000e+00    
           2.86054928e-05     7.17591553e-04     0.00000000e+00    
           2.50352387e-05     7.17616815e-04     0.00000000e+00    
           2.16643857e-05     7.15721166e-04     0.00000000e+00    
           2.11828668e-03     7.11703964e-04     0.00000000e+00    
           2.11733254e-03     7.09556334e-04     0.00000000e+00    
           2.11688876e-03     7.06679421e-04     0.00000000e+00    
           2.11724755e-03     7.03908445e-04     0.00000000e+00    
           2.11863709e-03     7.01338635e-04     0.00000000e+00    
           2.12041149e-03     6.99526398e-04     0.00000000e+00    
           2.12232978e-03     6.98567485e-04     0.00000000e+00    
           2.12425832e-03     6.97963289e-04     0.00000000e+00    
           2.92696583e-04     1.03696447e-03     0.00000000e+00    
           2.92995683e-04     1.03465316e-03     0.00000000e+00    
           2.93745979e-04     1.03254069e-03     0.00000000e+00    
           2.94881174e-04     1.03038410e-03     0.00000000e+00    
           2.96656712e-04     1.02841540e-03     0.00000000e+00    
           2.99158943e-04     1.02662842e-03     0.00000000e+00    
           3.02442029e-04     1.02538278e-03     0.00000000e+00    
           3.09037685e-04     1.02646044e-03     0.00000000e+00    
           3.11114040e-04     1.02768291e-03     0.00000000e+00    
           3.12950579e-04     1.02904334e-03     0.00000000e+00    
           3.14552570e-04     1.03068328e-03     0.00000000e+00    
           3.15791607e-04     1.03325478e-03     0.00000000e+00    
           3.16193298e-04     1.03581720e-03     0.00000000e+00    
           3.16098303e-04     1.03827741e-03     0.00000000e+00    
           3.13997647e-04    -6.96742700e-06     0.00000000e+00    
           3.12263786e-04    -4.87252237e-06     0.00000000e+00    
           3.09696596e-04    -3.19489800e-06     0.00000000e+00    
           3.06256901e-04    -1.85468696e-06     0.00000000e+00    
           3.02908506e-04    -2.15487080e-06     0.00000000e+00    
           3.00208019e-04    -2.93603421e-06     0.00000000e+00    
           2.97965104e-04    -3.92503944e-06     0.00000000e+00    
           2.95914419e-04    -5.51979110e-06     0.00000000e+00    
           2.94004683e-04    -7.83216274e-06     0.00000000e+00    
           7.63491204e-04     9.95203387e-04     0.00000000e+00    
           7.61373783e-04     9.93295573e-04     0.00000000e+00    
           7.59768183e-04     9.91078326e-04     0.00000000e+00    
           7.58661365e-04     9.88269341e-04     0.00000000e+00    
           7.58706708e-04     9.85545805e-04     0.00000000e+00    
           7.59084127e-04     9.83265229e-04     0.00000000e+00    
           7.59955728e-04     9.80947632e-04     0.00000000e+00    
           7.61494506e-04     9.78420489e-04     0.00000000e+00    
           7.68601021e-04     9.74825642e-04     0.00000000e+00    
           7.72222527e-04     9.75165574e-04     0.00000000e+00    
           7.75305787e-04     9.76111158e-04     0.00000000e+00    
           7.77760753e-04     9.77242249e-04     0.00000000e+00    
           7.79679394e-04     9.78529220e-04     0.00000000e+00    
           7.81498908e-04     9.80093493e-04     0.00000000e+00    
           7.82916090e-04     9.82242287e-04     0.00000000e+00    
           7.83608470e-04     9.84872808e-04     0.00000000e+00    
           7.82550836e-04    -5.87902323e-05     0.00000000e+00    
           7.80249771e-04    -5.56127852e-05     0.00000000e+00    
           7.76789791e-04    -5.30913312e-05     0.00000000e+00    
           7.72751402e-04    -5.22635382e-05     0.00000000e+00    
           7.69293169e-04    -5.24543211e-05     0.00000000e+00    
           1.87970488e-03     1.49424057e-04     0.00000000e+00    
           1.87839067e-03     1.50664899e-04     0.00000000e+00    
           1.87687576e-03     1.52019114e-04     0.00000000e+00    
           1.87431136e-03     1.53965491e-04     0.00000000e+00    
           1.87070703e-03     1.55018672e-04     0.00000000e+00    
           1.86722295e-03     1.54606329e-04     0.00000000e+00    
           1.86454784e-03     1.53436311e-04     0.00000000e+00    
           1.86266075e-03     1.52013890e-04     0.00000000e+00    
           1.86125399e-03     1.50367254e-04     0.00000000e+00    
           1.85988320e-03     1.48126986e-04     0.00000000e+00    
           1.85927423e-03     1.45373706e-04     0.00000000e+00    
           1.86054991e-03     1.39964061e-04     0.00000000e+00    
           1.86217669e-03     1.37495401e-04     0.00000000e+00    
           1.86439476e-03     1.35451948e-04     0.00000000e+00    
           1.86735671e-03     1.34052854e-04     0.00000000e+00    
           1.87068910e-03     1.33710142e-04     0.00000000e+00    
           1.87367038e-03     1.34205387e-04     0.00000000e+00    
           1.87636935e-03     1.35296068e-04     0.00000000e+00    
           1.87891524e-03     1.36964984e-04     0.00000000e+00    
           1.88081665e-03     1.39784781e-04     0.00000000e+00    
           1.88166171e-03     1.42808145e-04     0.00000000e+00    
           1.88166113e-03     1.45506099e-04     0.00000000e+00    
           1.92872656e-03     9.19970975e-04     0.00000000e+00    
           1.92618556e-03     9.21817787e-04     0.00000000e+00    
           1.92291231e-03     9.23097658e-04     0.00000000e+00    
           1.91938470e-03     9.23108193e-04     0.00000000e+00    
           1.91607652e-03     9.22355044e-04     0.00000000e+00    
           1.91315333e-03     9.20595427e-04     0.00000000e+00    
           1.91120454e-03     9.17911413e-04     0.00000000e+00    
           1.91003224e-03     9.15247481e-04     0.00000000e+00    
           1.90957158e-03     9.13016032e-04     0.00000000e+00    
           1.90962164e-03     9.08960006e-04     0.00000000e+00    
           1.91044598e-03     9.06950037e-04     0.00000000e+00    
           1.91176310e-03     9.04885528e-04     0.00000000e+00    
           1.91393029e-03     9.02656640e-04     0.00000000e+00    
           1.91665057e-03     9.00998421e-04     0.00000000e+00    
           1.92052743e-03     9.00086539e-04     0.00000000e+00    
           1.92407635e-03     9.00711282e-04     0.00000000e+00    
           1.92685472e-03     9.01977357e-04     0.00000000e+00    
           1.92889397e-03     9.03374632e-04     0.00000000e+00    
          -1.68099999e-04     9.07084031e-04     0.00000000e+00    
          -1.67343984e-04     9.09299764e-04     0.00000000e+00    
          -1.67236518e-04     9.11523122e-04     0.00000000e+00    
          -1.67592458e-04     9.13774478e-04     0.00000000e+00    
          -1.68284168e-04     9.15671815e-04     0.00000000e+00    
           5.16919885e-04     8.22028902e-04     0.00000000e+00    
           5.16587170e-04     8.24656221e-04     0.00000000e+00    
           5.15375170e-04     8.26691394e-04     0.00000000e+00    
           5.14191750e-04     8.28441291e-04     0.00000000e+00    
           5.12353668e-04     8.30257020e-04     0.00000000e+00    
           5.09292993e-04     8.32251564e-04     0.00000000e+00    
           5.05711709e-04     8.32522113e-04     0.00000000e+00    
           5.02952782e-04     8.32173740e-04     0.00000000e+00    
           5.00504917e-04     8.31671117e-04     0.00000000e+00    
           4.98226844e-04     8.30811390e-04     0.00000000e+00    
           4.95964137e-04     8.29087105e-04     0.00000000e+00    
           4.94551205e-04     8.26619158e-04     0.00000000e+00    
           4.93439322e-04     8.21951893e-04     0.00000000e+00    
           4.93592292e-04     8.19656532e-04     0.00000000e+00    
           4.94273612e-04     8.16964952e-04     0.00000000e+00    
           4.95859014e-04     8.14250845e-04     0.00000000e+00    
           4.98382491e-04     8.12048791e-04     0.00000000e+00    
           5.01794973e-04     8.10728176e-04     0.00000000e+00    
           5.04564086e-04     8.10383703e-04     0.00000000e+00    
           5.07237564e-04     8.10374622e-04     0.00000000e+00    
           5.10080834e-04     8.11051868e-04     0.00000000e+00    
           5.12544240e-04     8.12643149e-04     0.00000000e+00    
           5.14553743e-04     8.14744853e-04     0.00000000e+00    
           5.15949505e-04     8.17043066e-04     0.00000000e+00    
           1.47171051e-03     9.13433556e-04     0.00000000e+00    
           1.46997301e-03     9.15334385e-04     0.00000000e+00    
           1.46760477e-03     9.16948251e-04     0.00000000e+00    
           1.46474177e-03     9.18044941e-04     0.00000000e+00    
           1.46131625e-03     9.18223406e-04     0.00000000e+00    
           1.45792961e-03     9.17319674e-04     0.00000000e+00    
           1.45506475e-03     9.15418845e-04     0.00000000e+00    
           1.45326869e-03     9.12907417e-04     0.00000000e+00    
           1.45225937e-03     9.10271367e-04     0.00000000e+00    
           1.45236903e-03     9.07837821e-04     0.00000000e+00    
           1.45391608e-03     9.04043962e-04     0.00000000e+00    
           1.45540293e-03     9.02074564e-04     0.00000000e+00    
           1.45768281e-03     9.00222396e-04     0.00000000e+00    
           1.46094838e-03     8.98425002e-04     0.00000000e+00    
           1.46488496e-03     8.98479833e-04     0.00000000e+00    
           1.46785181e-03     8.99573846e-04     0.00000000e+00    
           1.47019955e-03     9.01087653e-04     0.00000000e+00    
           1.47248339e-03     9.03482316e-04     0.00000000e+00    
           1.47335010e-03     9.06759058e-04     0.00000000e+00    
           1.47324533e-03     9.09405644e-04     0.00000000e+00    
           1.07696746e-03     3.45238252e-04     0.00000000e+00    
           1.07645546e-03     3.47288500e-04     0.00000000e+00    
           1.07563869e-03     3.49984504e-04     0.00000000e+00    
           1.07323565e-03     3.52457719e-04     0.00000000e+00    
           1.07083120e-03     3.53750977e-04     0.00000000e+00    
           1.06868998e-03     3.54486139e-04     0.00000000e+00    
           1.06608355e-03     3.54777061e-04     0.00000000e+00    
           1.06265408e-03     3.54272663e-04     0.00000000e+00    
           1.05979806e-03     3.52093979e-04     0.00000000e+00    
           1.05813297e-03     3.49976181e-04     0.00000000e+00    
           1.05709175e-03     3.48018162e-04     0.00000000e+00    
           1.05637778e-03     3.44497530e-04     0.00000000e+00    
           1.05656195e-03     3.42640938e-04     0.00000000e+00    
           1.05714577e-03     3.40396509e-04     0.00000000e+00    
           1.05864927e-03     3.38103477e-04     0.00000000e+00    
           1.06116384e-03     3.35979043e-04     0.00000000e+00    
           1.06473477e-03     3.34560464e-04     0.00000000e+00    
           1.06821733e-03     3.34743381e-04     0.00000000e+00    
           1.07131654e-03     3.35933757e-04     0.00000000e+00    
           1.07371330e-03     3.37781472e-04     0.00000000e+00    
           1.07527268e-03     3.39574151e-04     0.00000000e+00    
           1.07632054e-03     3.41507781e-04     0.00000000e+00    
           1.84594479e-04     1.88148551e-04     0.00000000e+00    
           1.88111764e-04     1.87828540e-04     0.00000000e+00    
           1.91942905e-04     1.88749662e-04     0.00000000e+00    
           1.95277928e-04     1.91140323e-04     0.00000000e+00    
           1.97357527e-04     1.93838932e-04     0.00000000e+00    
           1.98584647e-04     1.96753768e-04     0.00000000e+00    
           1.99463917e-04     2.00172653e-04     0.00000000e+00    
           1.99020913e-04     2.04193784e-04     0.00000000e+00    
           1.97418340e-04     2.07236968e-04     0.00000000e+00    
           1.92977081e-04     2.10815255e-04     0.00000000e+00    
           1.90421546e-04     2.12148356e-04     0.00000000e+00    
           1.87349448e-04     2.13468127e-04     0.00000000e+00    
           1.83812503e-04     2.14135420e-04     0.00000000e+00    
           1.79918963e-04     2.13344727e-04     0.00000000e+00    
           1.76769448e-04     2.11633727e-04     0.00000000e+00    
           1.73950073e-04     2.09362523e-04     0.00000000e+00    
           1.71776337e-04     2.06091674e-04     0.00000000e+00    
           1.70458050e-04     2.02386233e-04     0.00000000e+00    
           2.27140286e-03     1.95034212e-04     0.00000000e+00    
           2.27330485e-03     1.92100604e-04     0.00000000e+00    
           2.27594073e-03     1.90179897e-04     0.00000000e+00    
           2.27873074e-03     1.89230064e-04     0.00000000e+00    
           1.99588045e-04     5.03574905e-04     0.00000000e+00    
           1.96271867e-04     5.04193886e-04     0.00000000e+00    
           1.93007363e-04     5.04576718e-04     0.00000000e+00    
           1.89225873e-04     5.04500291e-04     0.00000000e+00    
           1.85008816e-04     5.03625954e-04     0.00000000e+00    
           1.81335985e-04     5.01403585e-04     0.00000000e+00    
           1.78684437e-04     4.97992034e-04     0.00000000e+00    
           1.77333786e-04     4.94470878e-04     0.00000000e+00    
           1.76775808e-04     4.90593491e-04     0.00000000e+00    
           1.77306880e-04     4.86772915e-04     0.00000000e+00    
           1.79134135e-04     4.83277749e-04     0.00000000e+00    
           1.84513570e-04     4.78854054e-04     0.00000000e+00    
           1.87741185e-04     4.77312977e-04     0.00000000e+00    
           1.91615924e-04     4.76349524e-04     0.00000000e+00    
           1.95676956e-04     4.76678018e-04     0.00000000e+00    
           1.99517977e-04     4.77976486e-04     0.00000000e+00    
           2.02803421e-04     4.80321760e-04     0.00000000e+00    
           2.05596953e-04     4.83289652e-04     0.00000000e+00    
           2.07416422e-04     4.87329788e-04     0.00000000e+00    
           2.08082143e-04     4.91690298e-04     0.00000000e+00    